 Gaussian 16, Revision A.03,
 Gaussian 16:  ES64L-G16RevA.03 25-Dec-2016

 -----------------------------------------------------
 # scrf=(solvent=water,pcm) opt freq m062x/6-311g(d,p)
 -----------------------------------------------------

 -------------------
 Title Card Required
 -------------------
 Symbolic Z-matrix:
 Charge =  0 Multiplicity = 2

 SCF Done:  E(UM062X) =  -882.547867144     A.U. after   15 cycles
 SCF Done:  E(UM062X) =  -882.558408739     A.U. after   14 cycles
 SCF Done:  E(UM062X) =  -882.567073596     A.U. after   16 cycles
 SCF Done:  E(UM062X) =  -882.535289512     A.U. after   17 cycles
 SCF Done:  E(UM062X) =  -882.571990496     A.U. after   14 cycles
 SCF Done:  E(UM062X) =  -882.573622598     A.U. after   14 cycles
 SCF Done:  E(UM062X) =  -882.573600023     A.U. after   17 cycles
 SCF Done:  E(UM062X) =  -882.574283344     A.U. after   14 cycles
 SCF Done:  E(UM062X) =  -882.574776198     A.U. after   13 cycles
 SCF Done:  E(UM062X) =  -882.570281630     A.U. after   15 cycles
 SCF Done:  E(UM062X) =  -882.575576742     A.U. after   12 cycles
 SCF Done:  E(UM062X) =  -882.575570233     A.U. after   12 cycles
 SCF Done:  E(UM062X) =  -882.575577906     A.U. after   12 cycles
 SCF Done:  E(UM062X) =  -882.575563925     A.U. after   12 cycles
 SCF Done:  E(UM062X) =  -882.575578570     A.U. after   12 cycles
 SCF Done:  E(UM062X) =  -882.575579078     A.U. after   10 cycles
 SCF Done:  E(UM062X) =  -882.575579262     A.U. after    8 cycles
 SCF Done:  E(UM062X) =  -882.575579301     A.U. after    7 cycles
 SCF Done:  E(UM062X) =  -882.575579304     A.U. after    7 cycles
 Optimization completed.
    -- Stationary point found.
 Normal termination of Gaussian 16 at Mon Dec 21 20:47:53 2020.

 ----------------------------------------------------------------------
 #N Geom=AllCheck Guess=TCheck SCRF=Check GenChk UM062X/6-311G(d,p) Fre
 q
 ----------------------------------------------------------------------

 Structure from the checkpoint file:  "Tem_Ala_2.chk"
 -------------------
 Title Card Required
 -------------------
 Charge =  0 Multiplicity = 2

                         Standard orientation:
 ---------------------------------------------------------------------
 Center     Atomic      Atomic             Coordinates (Angstroms)
 Number     Number       Type             X           Y           Z
 ---------------------------------------------------------------------
      1          8           0        4.150375   -0.932591   -1.997686
      2          1           0        4.905995   -0.342742   -2.078295
      3          6           0        1.995900    1.326504    0.168621
      4          7           0        1.045649    0.242187    0.556551
      5          8           0        0.130433    0.574686    1.376325
      6          6           0        2.860029    0.869909   -1.010696
      7          6           0        3.406430   -0.541069   -0.852368
      8          6           0        2.238845   -1.501814   -0.742635
      9          6           0        1.327012   -1.220535    0.454531
     10          6           0       -0.015039   -1.921404    0.239460
     11          6           0        1.156974    2.532986   -0.255083
     12          6           0        1.956099   -1.693697    1.771860
     13          6           0        2.849699    1.691862    1.390721
     14          1           0        3.677690    1.587999   -1.127605
     15          1           0        2.268366    0.891085   -1.932080
     16          1           0        2.603637   -2.529142   -0.664045
     17          1           0        1.662054   -1.425860   -1.670701
     18          1           0        0.160009   -2.984171    0.060632
     19          1           0       -0.522924   -1.493375   -0.628141
     20          1           0       -0.655842   -1.810427    1.114639
     21          1           0        0.462644    2.248065   -1.049176
     22          1           0        1.819743    3.314233   -0.632447
     23          1           0        0.589140    2.926276    0.587294
     24          1           0        4.041851   -0.609049    0.039055
     25          1           0        1.328125   -1.380008    2.607188
     26          1           0        2.020573   -2.783824    1.770483
     27          1           0        2.960216   -1.293371    1.917939
     28          1           0        3.434713    2.586948    1.169053
     29          1           0        2.197036    1.900173    2.239948
     30          1           0        3.540122    0.893524    1.666225
     31          8           0       -5.296346   -1.043654   -0.386867
     32          8           0       -4.813013    0.915602   -1.347311
     33          7           0       -2.178761    0.719343   -0.640297
     34          6           0       -3.135654   -0.168985    0.007615
     35          6           0       -3.313398    0.081890    1.513925
     36          6           0       -4.479406   -0.020934   -0.669265
     37          1           0       -2.820579   -1.206846   -0.134234
     38          1           0       -1.391156    0.847673   -0.008945
     39          1           0       -2.616591    1.629755   -0.756378
     40          1           0       -6.153771   -0.867938   -0.800434
     41          1           0       -3.679326    1.098146    1.681905
     42          1           0       -4.014443   -0.626873    1.957584
     43          1           0       -2.342034   -0.021584    2.000955
 ---------------------------------------------------------------------

 SCF Done:  E(UM062X) =  -882.575579304     A.U. after    1 cycles

 The electronic state is 2-A.
 Alpha  occ. eigenvalues --  -19.66990 -19.62892 -19.61948 -19.61866 -14.84304
 Alpha  occ. eigenvalues --  -14.71896 -10.67970 -10.59417 -10.59392 -10.59275
 Alpha  occ. eigenvalues --  -10.58015 -10.53908 -10.53892 -10.53059 -10.53030
 Alpha  occ. eigenvalues --  -10.53015 -10.52792 -10.52748  -1.24533  -1.23755
 Alpha  occ. eigenvalues --   -1.15001  -1.14972  -0.99807  -0.98408  -0.93094
 Alpha  occ. eigenvalues --   -0.86310  -0.84730  -0.82299  -0.79438  -0.78423
 Alpha  occ. eigenvalues --   -0.78309  -0.76146  -0.69327  -0.68939  -0.67236
 Alpha  occ. eigenvalues --   -0.61803  -0.61026  -0.59239  -0.58775  -0.57741
 Alpha  occ. eigenvalues --   -0.57103  -0.56235  -0.54858  -0.52898  -0.51940
 Alpha  occ. eigenvalues --   -0.51501  -0.50599  -0.50203  -0.49930  -0.48672
 Alpha  occ. eigenvalues --   -0.48082  -0.47482  -0.47054  -0.46398  -0.45885
 Alpha  occ. eigenvalues --   -0.44700  -0.44184  -0.44169  -0.43530  -0.43118
 Alpha  occ. eigenvalues --   -0.42406  -0.41615  -0.40790  -0.40352  -0.40032
 Alpha  occ. eigenvalues --   -0.39954  -0.38046  -0.36008  -0.34840  -0.34078
 Alpha  occ. eigenvalues --   -0.31421  -0.27049
 Alpha virt. eigenvalues --    0.04888   0.06720   0.07749   0.08231   0.09094
 Alpha virt. eigenvalues --    0.09674   0.09940   0.10886   0.11262   0.11593
 Alpha virt. eigenvalues --    0.13177   0.14282   0.14637   0.15249   0.15768

  Beta  occ. eigenvalues --  -19.66990 -19.61948 -19.61896 -19.61866 -14.83467
  Beta  occ. eigenvalues --  -14.71887 -10.67970 -10.59449 -10.59423 -10.59276
  Beta  occ. eigenvalues --  -10.58015 -10.53906 -10.53890 -10.53023 -10.53014
  Beta  occ. eigenvalues --  -10.52995 -10.52777 -10.52733  -1.24532  -1.20826
  Beta  occ. eigenvalues --   -1.14997  -1.14972  -0.99777  -0.97171  -0.92898
  Beta  occ. eigenvalues --   -0.85677  -0.84721  -0.80729  -0.79188  -0.78339
  Beta  occ. eigenvalues --   -0.78239  -0.76142  -0.69061  -0.68410  -0.67223
  Beta  occ. eigenvalues --   -0.61357  -0.60938  -0.58789  -0.58675  -0.56660
  Beta  occ. eigenvalues --   -0.56175  -0.54918  -0.53389  -0.52615  -0.51657
  Beta  occ. eigenvalues --   -0.51224  -0.50583  -0.50133  -0.49640  -0.48236
  Beta  occ. eigenvalues --   -0.47537  -0.47211  -0.46775  -0.46185  -0.45728
  Beta  occ. eigenvalues --   -0.44163  -0.43843  -0.43706  -0.43388  -0.42567
  Beta  occ. eigenvalues --   -0.42117  -0.41431  -0.40350  -0.40246  -0.39783
  Beta  occ. eigenvalues --   -0.38237  -0.37087  -0.35986  -0.34693  -0.32716
  Beta  occ. eigenvalues --   -0.31297
  Beta virt. eigenvalues --   -0.02204   0.04895   0.06783   0.07787   0.08235
  Beta virt. eigenvalues --    0.09112   0.09703   0.10010   0.10940   0.11306
  Beta virt. eigenvalues --    0.11595   0.13204   0.14287   0.14667   0.15313

 Mulliken charges and spin densities:
               1          2
     1  O   -0.459409   0.000053
     2  H    0.279608   0.000027
     3  C   -0.097441  -0.014282
     4  N   -0.101263   0.485166
     5  O   -0.351643   0.467859
     6  C   -0.262236   0.006244
     7  C    0.021724  -0.002680
     8  C   -0.258203   0.006002
     9  C   -0.094030  -0.013983
    10  C   -0.353494   0.006577
    11  C   -0.343285   0.006624
    12  C   -0.318670   0.030097
    13  C   -0.318614   0.030342
    14  H    0.173900  -0.001384
    15  H    0.166256  -0.000766
    16  H    0.174807  -0.001380
    17  H    0.167929  -0.000675
    18  H    0.156403  -0.001132
    19  H    0.147025   0.001355
    20  H    0.159695  -0.000898
    21  H    0.149721   0.001528
    22  H    0.155050  -0.001110
    23  H    0.155907  -0.001273
    24  H    0.156694  -0.000595
    25  H    0.156767  -0.003124
    26  H    0.156593   0.001792
    27  H    0.144322  -0.000955
    28  H    0.156699   0.001867
    29  H    0.157110  -0.003084
    30  H    0.144311  -0.000974
    31  O   -0.373280   0.000007
    32  O   -0.407113  -0.000011
    33  N   -0.530258   0.007178
    34  C   -0.203461  -0.000688
    35  C   -0.370502   0.001255
    36  C    0.445646   0.000133
    37  H    0.192200   0.000005
    38  H    0.248191  -0.002860
    39  H    0.222748  -0.000331
    40  H    0.300286  -0.000001
    41  H    0.143815  -0.000056
    42  H    0.149742  -0.000075
    43  H    0.159752  -0.001792
 Sum of Mulliken charges =   0.00000   1.00000

 Dipole moment (field-independent basis, Debye):
    X=              4.1576    Y=             -0.4154    Z=              1.9591  Tot=              4.6148
 Quadrupole moment (field-independent basis, Debye-Ang):
   XX=            -91.5769   YY=           -109.3370   ZZ=           -121.2037
   XY=             14.5113   XZ=             -3.2591   YZ=             -2.0604

  Exact polarizability: 216.744   3.805 207.973  -4.620  -6.393 193.694
 Approx polarizability: 191.415   0.743 190.676  -4.071  -5.934 181.930

                      1                      2                      3
                      A                      A                      A
 Frequencies --     21.0662                26.0134                33.6467
 Red. masses --      4.8233                 4.6647                 4.5228
 Frc consts  --      0.0013                 0.0019                 0.0030

 IR Inten    --      2.6530                 2.7822                 1.0121

                      4                      5                      6
                      A                      A                      A
 Frequencies --     40.7308                57.7625                65.9691
 Red. masses --      4.9459                 4.5720                 4.8793
 Frc consts  --      0.0048                 0.0090                 0.0125

 IR Inten    --      0.4839                 0.5822                 1.9014

                      7                      8                      9
                      A                      A                      A
 Frequencies --     79.6518               118.2979               125.6671
 Red. masses --      4.3613                 5.4636                 2.4800
 Frc consts  --      0.0163                 0.0450                 0.0231

 IR Inten    --      4.3185                 3.7317                 2.4522

                     10                     11                     12
                      A                      A                      A
 Frequencies --    168.1545               207.4152               221.9630
 Red. masses --      3.3857                 1.0812                 2.9477
 Frc consts  --      0.0564                 0.0274                 0.0856

 IR Inten    --      0.9010                 1.1771                 1.4723

                     13                     14                     15
                      A                      A                      A
 Frequencies --    246.7695               252.6140               258.2701
 Red. masses --      2.0480                 1.1561                 1.2337
 Frc consts  --      0.0735                 0.0435                 0.0485

 IR Inten    --      0.2723                 7.0308               109.9456

                     16                     17                     18
                      A                      A                      A
 Frequencies --    268.1906               273.0359               279.1516
 Red. masses --      1.3663                 1.2297                 1.2618
 Frc consts  --      0.0579                 0.0540                 0.0579

 IR Inten    --      3.3683                83.4761                 6.5117

                     19                     20                     21
                      A                      A                      A
 Frequencies --    292.9383               302.8139               308.6189
 Red. masses --      1.9097                 1.8661                 1.3589
 Frc consts  --      0.0966                 0.1008                 0.0763

 IR Inten    --      9.6942                10.3771                64.1072

                     22                     23                     24
                      A                      A                      A
 Frequencies --    314.1091               322.1092               336.4843
 Red. masses --      2.9059                 1.8128                 2.6564
 Frc consts  --      0.1689                 0.1108                 0.1772

 IR Inten    --      2.2596                 4.8661                16.8632

                     25                     26                     27
                      A                      A                      A
 Frequencies --    343.6255               388.7985               396.8703
 Red. masses --      2.5523                 2.9553                 3.1278
 Frc consts  --      0.1776                 0.2632                 0.2903

 IR Inten    --      7.3533                 3.1404                 1.2240

                     28                     29                     30
                      A                      A                      A
 Frequencies --    400.8630               411.5778               428.6290
 Red. masses --      3.8514                 4.3104                 2.6651
 Frc consts  --      0.3646                 0.4302                 0.2885

 IR Inten    --     25.7341                 1.1926                 7.9958

                     31                     32                     33
                      A                      A                      A
 Frequencies --    468.6787               494.9559               512.9127
 Red. masses --      3.0453                 2.2003                 3.6509
 Frc consts  --      0.3941                 0.3176                 0.5659

 IR Inten    --      2.3251                 3.0026                34.8332

                     34                     35                     36
                      A                      A                      A
 Frequencies --    566.9841               583.5154               588.7320
 Red. masses --      2.8696                 1.1876                 3.8894
 Frc consts  --      0.5435                 0.2383                 0.7943

 IR Inten    --      3.1886               135.1950                11.3236

                     37                     38                     39
                      A                      A                      A
 Frequencies --    589.2765               642.6061               708.2431
 Red. masses --      3.0421                 3.6427                 3.4660
 Frc consts  --      0.6224                 0.8863                 1.0243

 IR Inten    --     13.8421                44.5420                22.8278

                     40                     41                     42
                      A                      A                      A
 Frequencies --    766.4842               818.5297               830.7876
 Red. masses --      4.3609                 2.5321                 2.5287
 Frc consts  --      1.5095                 0.9995                 1.0283

 IR Inten    --     47.4283                47.6356                 0.5760

                     43                     44                     45
                      A                      A                      A
 Frequencies --    877.5073               887.1825               926.5357
 Red. masses --      2.5576                 1.5829                 2.3098
 Frc consts  --      1.1603                 0.7340                 1.1683

 IR Inten    --      1.7174                 1.9149                26.5440

                     46                     47                     48
                      A                      A                      A
 Frequencies --    937.6343               951.0672               959.0888
 Red. masses --      2.0482                 1.4919                 1.4657
 Frc consts  --      1.0609                 0.7951                 0.7944

 IR Inten    --      7.1442                 1.5505                12.6201

                     49                     50                     51
                      A                      A                      A
 Frequencies --    966.8303               971.5929               992.3393
 Red. masses --      1.2324                 1.6588                 1.6571
 Frc consts  --      0.6787                 0.9226                 0.9614

 IR Inten    --    212.5510                 2.0458                 3.5423

                     52                     53                     54
                      A                      A                      A
 Frequencies --   1015.3213              1018.2614              1052.4732
 Red. masses --      1.4456                 1.2975                 1.5245
 Frc consts  --      0.8780                 0.7926                 0.9949

 IR Inten    --      3.0905                 1.2204                14.4221

                     55                     56                     57
                      A                      A                      A
 Frequencies --   1061.1417              1084.2713              1104.1583
 Red. masses --      1.5914                 2.2741                 1.9095
 Frc consts  --      1.0558                 1.5752                 1.3716

 IR Inten    --      1.8517                 1.9607                65.2612

                     58                     59                     60
                      A                      A                      A
 Frequencies --   1114.0478              1116.3347              1122.0138
 Red. masses --      2.3034                 2.9440                 1.7867
 Frc consts  --      1.6843                 2.1616                 1.3252

 IR Inten    --     59.2513                66.3801                 1.8349

                     61                     62                     63
                      A                      A                      A
 Frequencies --   1174.1985              1197.1286              1199.1309
 Red. masses --      2.3335                 1.9525                 1.5009
 Frc consts  --      1.8956                 1.6486                 1.2715

 IR Inten    --    359.2940                24.6740                27.6423

                     64                     65                     66
                      A                      A                      A
 Frequencies --   1215.6437              1226.8522              1256.3495
 Red. masses --      2.4760                 2.5972                 2.0435
 Frc consts  --      2.1558                 2.3033                 1.9004

 IR Inten    --     36.1926                20.5496                35.2505

                     67                     68                     69
                      A                      A                      A
 Frequencies --   1259.5378              1270.2222              1286.8579
 Red. masses --      1.6932                 1.7659                 2.4192
 Frc consts  --      1.5826                 1.6787                 2.3604

 IR Inten    --     32.4897                27.9363                40.0923

                     70                     71                     72
                      A                      A                      A
 Frequencies --   1292.4003              1325.7113              1329.9590
 Red. masses --      1.8031                 1.3685                 1.5302
 Frc consts  --      1.7745                 1.4171                 1.5946

 IR Inten    --     35.0388                 2.6356                12.6633

                     73                     74                     75
                      A                      A                      A
 Frequencies --   1348.1103              1362.0182              1366.4597
 Red. masses --      1.5438                 1.4109                 1.6521
 Frc consts  --      1.6531                 1.5421                 1.8175

 IR Inten    --      9.3992                46.1081                47.9325

                     76                     77                     78
                      A                      A                      A
 Frequencies --   1390.4323              1394.1323              1397.0282
 Red. masses --      1.2931                 1.2402                 1.3285
 Frc consts  --      1.4729                 1.4202                 1.5276

 IR Inten    --      2.0104                11.7431                40.5583

                     79                     80                     81
                      A                      A                      A
 Frequencies --   1406.9537              1407.8535              1415.5334
 Red. masses --      1.2648                 1.2696                 1.5546
 Frc consts  --      1.4751                 1.4826                 1.8353

 IR Inten    --     26.9142                15.5846                35.2977

                     82                     83                     84
                      A                      A                      A
 Frequencies --   1449.8133              1455.8763              1469.7354
 Red. masses --      1.5382                 1.5459                 1.0573
 Frc consts  --      1.9050                 1.9305                 1.3457

 IR Inten    --     34.5869                 8.6516                 1.9430

                     85                     86                     87
                      A                      A                      A
 Frequencies --   1476.2464              1478.1089              1480.0792
 Red. masses --      1.1551                 1.0709                 3.0705
 Frc consts  --      1.4831                 1.3786                 3.9631

 IR Inten    --      3.8308                 3.9719                 5.9149

                     88                     89                     90
                      A                      A                      A
 Frequencies --   1486.4946              1489.9149              1491.1946
 Red. masses --      1.0672                 1.0792                 1.0930
 Frc consts  --      1.3894                 1.4115                 1.4321

 IR Inten    --      1.6163                 4.5194                 2.7084

                     91                     92                     93
                      A                      A                      A
 Frequencies --   1493.5847              1498.2945              1501.4957
 Red. masses --      1.0469                 1.1212                 1.0896
 Frc consts  --      1.3759                 1.4830                 1.4473

 IR Inten    --     10.5127                12.9684                17.4486

                     94                     95                     96
                      A                      A                      A
 Frequencies --   1504.0360              1507.6891              1515.2193
 Red. masses --      1.2595                 1.0694                 1.1433
 Frc consts  --      1.6786                 1.4323                 1.5466

 IR Inten    --     36.6712                20.5772                22.3431

                     97                     98                     99
                      A                      A                      A
 Frequencies --   1638.8236              1850.8073              3042.7929
 Red. masses --      1.0933                 9.9838                 1.0812
 Frc consts  --      1.7300                20.1497                 5.8979

 IR Inten    --     81.6991               513.8696                18.4822

                    100                    101                    102
                      A                      A                      A
 Frequencies --   3056.5103              3059.6114              3062.8215
 Red. masses --      1.0599                 1.0352                 1.0557
 Frc consts  --      5.8340                 5.7098                 5.8348

 IR Inten    --     16.0549                20.1479                24.2835

                    103                    104                    105
                      A                      A                      A
 Frequencies --   3065.4498              3067.0883              3070.2035
 Red. masses --      1.0399                 1.0377                 1.0357
 Frc consts  --      5.7575                 5.7516                 5.7520

 IR Inten    --     33.2789                45.5295                21.7924

                    106                    107                    108
                      A                      A                      A
 Frequencies --   3073.1514              3082.2820              3106.5099
 Red. masses --      1.0364                 1.0831                 1.1046
 Frc consts  --      5.7671                 6.0627                 6.2805

 IR Inten    --     17.3853                19.8369                31.2528

                    109                    110                    111
                      A                      A                      A
 Frequencies --   3118.2816              3140.8786              3143.3802
 Red. masses --      1.1022                 1.1030                 1.1032
 Frc consts  --      6.3147                 6.4108                 6.4223

 IR Inten    --     29.5970                29.0806                16.0376

                    112                    113                    114
                      A                      A                      A
 Frequencies --   3144.7077              3147.0133              3149.3949
 Red. masses --      1.1033                 1.1029                 1.1025
 Frc consts  --      6.4286                 6.4356                 6.4432

 IR Inten    --     14.3720                69.0227                 7.0392

                    115                    116                    117
                      A                      A                      A
 Frequencies --   3153.4406              3153.8785              3158.3511
 Red. masses --      1.1041                 1.1037                 1.1029
 Frc consts  --      6.4690                 6.4684                 6.4821

 IR Inten    --     14.4592                 2.9070                14.6730

                    118                    119                    120
                      A                      A                      A
 Frequencies --   3161.4445              3165.5535              3508.5337
 Red. masses --      1.1022                 1.1025                 1.0504
 Frc consts  --      6.4908                 6.5093                 7.6185

 IR Inten    --     36.5025                22.7316                68.0253

                    121                    122                    123
                      A                      A                      A
 Frequencies --   3584.6961              3812.2342              3877.7977
 Red. masses --      1.0921                 1.0649                 1.0666
 Frc consts  --      8.2683                 9.1186                 9.4496

 IR Inten    --    112.6628               149.4170                73.7905

 - Thermochemistry -
 -------------------
 Temperature   298.150 Kelvin.  Pressure   1.00000 Atm.
 Atom     1 has atomic number  8 and mass  15.99491

 Molecular mass:   261.18143 amu.
 Principal axes and moments of inertia in atomic units:
                           1         2         3
     Eigenvalues --  2574.082719687.92763**********
           X            0.99998   0.00568  -0.00420
           Y           -0.00588   0.99876  -0.04942
           Z            0.00392   0.04945   0.99877
 This molecule is an asymmetric top.
 Rotational symmetry number  1.
 Warning -- assumption of classical behavior for rotation
           may cause significant error
 Rotational temperatures (Kelvin)      0.03365     0.00894     0.00863
 Rotational constants (GHZ):           0.70112     0.18629     0.17986
 Zero-point vibrational energy     993721.4 (Joules/Mol)
                                  237.50512 (Kcal/Mol)
 Warning -- explicit consideration of  37 degrees of freedom as
           vibrations may cause significant error
 Vibrational temperatures:     30.31    37.43    48.41    58.60    83.11
          (Kelvin)             94.91   114.60   170.20   180.81   241.94
                              298.42   319.36   355.05   363.46   371.59
                              385.87   392.84   401.64   421.47   435.68
                              444.03   451.93   463.44   484.13   494.40
                              559.39   571.01   576.75   592.17   616.70
                              674.32   712.13   737.97   815.76   839.55
                              847.05   847.84   924.57  1019.00  1102.80
                             1177.68  1195.32  1262.54  1276.46  1333.08
                             1349.05  1368.37  1379.91  1391.05  1397.91
                             1427.75  1460.82  1465.05  1514.27  1526.75
                             1560.02  1588.64  1602.87  1606.16  1614.33
                             1689.41  1722.40  1725.28  1749.04  1765.17
                             1807.61  1812.19  1827.57  1851.50  1859.48
                             1907.40  1913.51  1939.63  1959.64  1966.03
                             2000.52  2005.85  2010.01  2024.29  2025.59
                             2036.64  2085.96  2094.68  2114.62  2123.99
                             2126.67  2129.50  2138.73  2143.66  2145.50
                             2148.94  2155.71  2160.32  2163.97  2169.23
                             2180.06  2357.90  2662.90  4377.90  4397.64
                             4402.10  4406.72  4410.50  4412.86  4417.34
                             4421.58  4434.72  4469.57  4486.51  4519.02
                             4522.62  4524.53  4527.85  4531.28  4537.10
                             4537.73  4544.16  4548.61  4554.53  5048.00
                             5157.58  5484.95  5579.29

 Zero-point correction=                           0.378489 (Hartree/Particle)
 Thermal correction to Energy=                    0.400267
 Thermal correction to Enthalpy=                  0.401211
 Thermal correction to Gibbs Free Energy=         0.326033
 Sum of electronic and zero-point Energies=           -882.197091
 Sum of electronic and thermal Energies=              -882.175313
 Sum of electronic and thermal Enthalpies=            -882.174368
 Sum of electronic and thermal Free Energies=         -882.249546

                     E (Thermal)             CV                S
                      KCal/Mol        Cal/Mol-Kelvin    Cal/Mol-Kelvin
 Total                  251.171             81.265            158.225
 Electronic               0.000              0.000              1.377
 Translational            0.889              2.981             42.580
 Rotational               0.889              2.981             33.881
 Vibrational            249.394             75.304             80.387
 Vibration     1          0.593              1.985              6.531
 Vibration     2          0.593              1.985              6.112
 Vibration     3          0.594              1.983              5.602
 Vibration     4          0.594              1.981              5.223
 Vibration     5          0.596              1.974              4.532
 Vibration     6          0.597              1.971              4.270
 Vibration     7          0.600              1.963              3.899
 Vibration     8          0.608              1.934              3.128
 Vibration     9          0.611              1.927              3.011
 Vibration    10          0.625              1.882              2.456
 Vibration    11          0.641              1.829              2.066
 Vibration    12          0.648              1.808              1.943
 Vibration    13          0.661              1.768              1.754
 Vibration    14          0.664              1.758              1.712
 Vibration    15          0.667              1.749              1.673
 Vibration    16          0.673              1.732              1.608
 Vibration    17          0.676              1.723              1.577
 Vibration    18          0.679              1.712              1.539
 Vibration    19          0.688              1.687              1.457
 Vibration    20          0.694              1.668              1.401
 Vibration    21          0.698              1.657              1.370
 Vibration    22          0.702              1.647              1.341
 Vibration    23          0.707              1.631              1.299
 Vibration    24          0.717              1.603              1.229
 Vibration    25          0.722              1.588              1.195
 Vibration    26          0.757              1.494              1.005
 Vibration    27          0.763              1.477              0.974
 Vibration    28          0.767              1.468              0.959
 Vibration    29          0.776              1.445              0.921
 Vibration    30          0.790              1.408              0.863
 Vibration    31          0.826              1.320              0.741
 Vibration    32          0.851              1.261              0.671
 Vibration    33          0.868              1.221              0.627
 Vibration    34          0.923              1.103              0.510
 Vibration    35          0.940              1.067              0.479
 Vibration    36          0.946              1.056              0.469
 Vibration    37          0.947              1.055              0.468

 Optimization completed.
    -- Stationary point found.
 Normal termination of Gaussian 16 at Mon Dec 21 21:51:28 2020.
