 Gaussian 16, Revision A.03,
 Gaussian 16:  ES64L-G16RevA.03 25-Dec-2016

 -----------------------------------------------------
 # opt freq m062x/6-311g(d,p) scrf=(solvent=water,pcm)
 -----------------------------------------------------

 -------------------
 Title Card Required
 -------------------
 Symbolic Z-matrix:
 Charge =  0 Multiplicity = 2

 SCF Done:  E(UM062X) =  -882.554570680     A.U. after   15 cycles
 SCF Done:  E(UM062X) =  -882.562760814     A.U. after   13 cycles
 SCF Done:  E(UM062X) =  -882.566605566     A.U. after   14 cycles
 SCF Done:  E(UM062X) =  -882.568980805     A.U. after   17 cycles
 SCF Done:  E(UM062X) =  -882.569726228     A.U. after   14 cycles
 SCF Done:  E(UM062X) =  -882.566214384     A.U. after   14 cycles
 SCF Done:  E(UM062X) =  -882.568369569     A.U. after   14 cycles
 SCF Done:  E(UM062X) =  -882.571122749     A.U. after   12 cycles
 SCF Done:  E(UM062X) =  -882.571574616     A.U. after   14 cycles
 SCF Done:  E(UM062X) =  -882.571391044     A.U. after   14 cycles
 SCF Done:  E(UM062X) =  -882.572016430     A.U. after   11 cycles
 SCF Done:  E(UM062X) =  -882.572038653     A.U. after    5 cycles
 SCF Done:  E(UM062X) =  -882.572041127     A.U. after   12 cycles
 SCF Done:  E(UM062X) =  -882.572040798     A.U. after   12 cycles
 SCF Done:  E(UM062X) =  -882.572042871     A.U. after   12 cycles
 SCF Done:  E(UM062X) =  -882.572044254     A.U. after   11 cycles
 SCF Done:  E(UM062X) =  -882.572044578     A.U. after   10 cycles
 SCF Done:  E(UM062X) =  -882.572044583     A.U. after   10 cycles
 SCF Done:  E(UM062X) =  -882.572044618     A.U. after    8 cycles
 Optimization completed.
    -- Stationary point found.
 Normal termination of Gaussian 16 at Fri Dec 25 01:42:12 2020.

 ----------------------------------------------------------------------
 #N Geom=AllCheck Guess=TCheck SCRF=Check GenChk UM062X/6-311G(d,p) Fre
 q
 ----------------------------------------------------------------------

 Structure from the checkpoint file:  "Tem_Ala_CA-H.chk"
 -------------------
 Title Card Required
 -------------------
 Charge =  0 Multiplicity = 2

                         Standard orientation:
 ---------------------------------------------------------------------
 Center     Atomic      Atomic             Coordinates (Angstroms)
 Number     Number       Type             X           Y           Z
 ---------------------------------------------------------------------
      1          8           0        4.802473   -1.227316    0.011779
      2          1           0        5.450455   -0.723969    0.513782
      3          6           0        2.010111    1.351224    0.062970
      4          7           0        0.970438    0.397043   -0.425698
      5          8           0       -0.201674    0.871810   -0.554491
      6          6           0        3.403527    0.749397   -0.143848
      7          6           0        3.514579   -0.700978    0.303054
      8          6           0        2.516539   -1.532303   -0.479136
      9          6           0        1.065403   -1.086391   -0.281355
     10          6           0        0.189391   -1.710187   -1.368519
     11          6           0        1.883977    2.629125   -0.767103
     12          6           0        0.521575   -1.498189    1.094156
     13          6           0        1.742190    1.677936    1.539378
     14          1           0        4.125557    1.372416    0.393558
     15          1           0        3.664002    0.785046   -1.207154
     16          1           0        2.598811   -2.583791   -0.191883
     17          1           0        2.781571   -1.456730   -1.539510
     18          1           0        0.340437   -2.791938   -1.365303
     19          1           0        0.464163   -1.320870   -2.350944
     20          1           0       -0.863479   -1.502915   -1.180002
     21          1           0        1.956339    2.399144   -1.831982
     22          1           0        2.695556    3.308618   -0.498847
     23          1           0        0.931865    3.122119   -0.576583
     24          1           0        3.319566   -0.786968    1.378864
     25          1           0       -0.481032   -1.087253    1.222875
     26          1           0        0.454154   -2.587849    1.139581
     27          1           0        1.156310   -1.164349    1.915077
     28          1           0        2.372805    2.516221    1.843603
     29          1           0        0.695929    1.964402    1.663024
     30          1           0        1.956600    0.837587    2.199703
     31          8           0       -2.950138   -1.623398    0.535746
     32          8           0       -5.076522   -1.029949    0.195006
     33          7           0       -4.332514    1.279656   -1.048277
     34          6           0       -3.328369    0.572222   -0.261501
     35          6           0       -2.856291    1.309716    1.001646
     36          6           0       -3.904389   -0.761392    0.154734
     37          1           0       -2.450458    0.377471   -0.881288
     38          1           0       -4.002250    2.223620   -1.222882
     39          1           0       -5.178235    1.369804   -0.491287
     40          1           0       -3.381024   -2.434844    0.841369
     41          1           0       -3.701348    1.490331    1.671765
     42          1           0       -2.090293    0.738785    1.528718
     43          1           0       -2.424034    2.268781    0.712395
 ---------------------------------------------------------------------

 SCF Done:  E(UM062X) =  -882.572044618     A.U. after    1 cycles

 The electronic state is 2-A.
 Alpha  occ. eigenvalues --  -19.66985 -19.62285 -19.61775 -19.61770 -14.83686
 Alpha  occ. eigenvalues --  -14.72308 -10.67784 -10.59133 -10.59128 -10.58997
 Alpha  occ. eigenvalues --  -10.57594 -10.53767 -10.53697 -10.52932 -10.52871
 Alpha  occ. eigenvalues --  -10.52627 -10.52592 -10.52385  -1.24380  -1.23146
 Alpha  occ. eigenvalues --   -1.14890  -1.14793  -0.99910  -0.98063  -0.92744
 Alpha  occ. eigenvalues --   -0.86052  -0.84714  -0.82019  -0.79131  -0.78189
 Alpha  occ. eigenvalues --   -0.77971  -0.75921  -0.69059  -0.68588  -0.67154
 Alpha  occ. eigenvalues --   -0.61696  -0.60764  -0.58973  -0.58613  -0.57429
 Alpha  occ. eigenvalues --   -0.56655  -0.55672  -0.54653  -0.52738  -0.52428
 Alpha  occ. eigenvalues --   -0.51350  -0.50317  -0.49833  -0.49544  -0.48220
 Alpha  occ. eigenvalues --   -0.47731  -0.47528  -0.47163  -0.46126  -0.45589
 Alpha  occ. eigenvalues --   -0.44456  -0.44194  -0.43814  -0.43469  -0.43052
 Alpha  occ. eigenvalues --   -0.42023  -0.41389  -0.40660  -0.40214  -0.39771
 Alpha  occ. eigenvalues --   -0.39586  -0.37735  -0.35888  -0.34627  -0.33526
 Alpha  occ. eigenvalues --   -0.31483  -0.26500
 Alpha virt. eigenvalues --    0.05003   0.06420   0.07761   0.08291   0.08578
 Alpha virt. eigenvalues --    0.09660   0.10162   0.10764   0.11423   0.11734
 Alpha virt. eigenvalues --    0.13021   0.14084   0.14587   0.15264   0.15585

  Beta  occ. eigenvalues --  -19.66986 -19.61774 -19.61770 -19.61247 -14.82874
  Beta  occ. eigenvalues --  -14.72308 -10.67784 -10.59157 -10.59135 -10.59026
  Beta  occ. eigenvalues --  -10.57595 -10.53765 -10.53694 -10.52897 -10.52868
  Beta  occ. eigenvalues --  -10.52591 -10.52580 -10.52373  -1.24381  -1.20198
  Beta  occ. eigenvalues --   -1.14886  -1.14793  -0.99909  -0.96846  -0.92562
  Beta  occ. eigenvalues --   -0.85451  -0.84711  -0.80423  -0.78909  -0.78144
  Beta  occ. eigenvalues --   -0.77867  -0.75918  -0.68818  -0.68050  -0.67152
  Beta  occ. eigenvalues --   -0.61262  -0.60735  -0.58627  -0.58440  -0.56328
  Beta  occ. eigenvalues --   -0.55924  -0.54669  -0.53010  -0.52401  -0.51998
  Beta  occ. eigenvalues --   -0.51074  -0.50250  -0.49781  -0.49323  -0.47716
  Beta  occ. eigenvalues --   -0.47671  -0.46996  -0.46679  -0.45877  -0.45387
  Beta  occ. eigenvalues --   -0.44269  -0.43607  -0.43401  -0.43268  -0.42113
  Beta  occ. eigenvalues --   -0.41981  -0.41131  -0.40205  -0.40051  -0.39445
  Beta  occ. eigenvalues --   -0.37880  -0.36855  -0.35854  -0.34556  -0.32080
  Beta  occ. eigenvalues --   -0.31428
  Beta virt. eigenvalues --   -0.01346   0.05019   0.06495   0.07811   0.08321
  Beta virt. eigenvalues --    0.08571   0.09661   0.10185   0.10884   0.11470
  Beta virt. eigenvalues --    0.11788   0.13082   0.14108   0.14590   0.15348

 Mulliken charges and spin densities:
               1          2
     1  O   -0.459789   0.000102
     2  H    0.278930   0.000044
     3  C   -0.109654  -0.013065
     4  N   -0.086177   0.465680
     5  O   -0.342295   0.490366
     6  C   -0.258243   0.007550
     7  C    0.018859  -0.003708
     8  C   -0.254611   0.007484
     9  C   -0.106509  -0.013129
    10  C   -0.328715   0.004947
    11  C   -0.325448   0.005029
    12  C   -0.328772   0.029212
    13  C   -0.325237   0.029863
    14  H    0.171801  -0.001335
    15  H    0.164159  -0.000518
    16  H    0.172359  -0.001272
    17  H    0.165126  -0.000327
    18  H    0.148116  -0.001349
    19  H    0.146025  -0.000450
    20  H    0.152160  -0.000083
    21  H    0.147957  -0.000178
    22  H    0.149304  -0.001337
    23  H    0.151359  -0.001103
    24  H    0.156312  -0.000534
    25  H    0.160801  -0.002353
    26  H    0.153275   0.001940
    27  H    0.140096  -0.001048
    28  H    0.155817   0.001986
    29  H    0.160036  -0.002812
    30  H    0.143000  -0.001131
    31  O   -0.363592  -0.000072
    32  O   -0.408839  -0.000023
    33  N   -0.522944   0.000033
    34  C   -0.205115   0.001333
    35  C   -0.362985  -0.002192
    36  C    0.446847  -0.000295
    37  H    0.203727  -0.001428
    38  H    0.234743   0.000002
    39  H    0.223295  -0.000039
    40  H    0.299312   0.000004
    41  H    0.140109   0.001634
    42  H    0.153354   0.001430
    43  H    0.152045   0.001142
 Sum of Mulliken charges =   0.00000   1.00000

 Dipole moment (field-independent basis, Debye):
    X=              5.6264    Y=              1.1980    Z=              3.8855  Tot=              6.9418
 Quadrupole moment (field-independent basis, Debye-Ang):
   XX=           -127.6724   YY=           -102.5754   ZZ=           -112.7433
   XY=              4.4218   XZ=             -1.4091   YZ=             -1.1869

  Exact polarizability: 223.869  -0.634 210.558   5.618  -1.804 183.930
 Approx polarizability: 204.562  -2.305 186.305   3.510  -2.325 172.270

                      1                      2                      3
                      A                      A                      A
 Frequencies --     18.0264                31.0212                35.2213
 Red. masses --      4.8991                 4.0176                 4.9728
 Frc consts  --      0.0009                 0.0023                 0.0036

 IR Inten    --      0.0492                 0.3437                 0.2374

                      4                      5                      6
                      A                      A                      A
 Frequencies --     44.7060                55.2323                66.1539
 Red. masses --      4.7793                 8.3921                 4.8267
 Frc consts  --      0.0056                 0.0151                 0.0124

 IR Inten    --      0.6666                 2.7871                 0.4879

                      7                      8                      9
                      A                      A                      A
 Frequencies --     83.2986                98.8620               128.8574
 Red. masses --      4.2445                 3.8896                 2.5217
 Frc consts  --      0.0174                 0.0224                 0.0247

 IR Inten    --      2.5539                 6.8252                 1.5850

                     10                     11                     12
                      A                      A                      A
 Frequencies --    172.0956               194.3929               207.9870
 Red. masses --      3.2544                 1.0969                 3.0555
 Frc consts  --      0.0568                 0.0244                 0.0779

 IR Inten    --      1.1254                 0.1065                 1.6708

                     13                     14                     15
                      A                      A                      A
 Frequencies --    211.8241               227.9874               246.8441
 Red. masses --      1.1615                 1.1895                 1.1124
 Frc consts  --      0.0307                 0.0364                 0.0399

 IR Inten    --     66.4355                 0.0780                 0.1202

                     16                     17                     18
                      A                      A                      A
 Frequencies --    254.5063               270.5695               282.7358
 Red. masses --      2.4565                 1.2047                 2.0593
 Frc consts  --      0.0937                 0.0520                 0.0970

 IR Inten    --      4.0643                 1.7058                 9.7691

                     19                     20                     21
                      A                      A                      A
 Frequencies --    291.8139               299.0931               313.8310
 Red. masses --      1.2343                 2.2835                 2.8311
 Frc consts  --      0.0619                 0.1204                 0.1643

 IR Inten    --      1.6713                 5.6103                 1.7970

                     22                     23                     24
                      A                      A                      A
 Frequencies --    318.0302               327.6373               330.7427
 Red. masses --      1.1990                 1.8302                 3.1836
 Frc consts  --      0.0715                 0.1158                 0.2052

 IR Inten    --    153.5306                17.2515                 7.4072

                     25                     26                     27
                      A                      A                      A
 Frequencies --    341.4788               383.5519               384.6568
 Red. masses --      2.8935                 2.8909                 2.8240
 Frc consts  --      0.1988                 0.2506                 0.2462

 IR Inten    --      9.0579                 2.0000                 7.2486

                     28                     29                     30
                      A                      A                      A
 Frequencies --    405.5177               413.9247               427.9303
 Red. masses --      3.7120                 4.4959                 2.7517
 Frc consts  --      0.3597                 0.4539                 0.2969

 IR Inten    --     19.6600                 2.3583                 9.8607

                     31                     32                     33
                      A                      A                      A
 Frequencies --    469.7371               493.9692               509.5000
 Red. masses --      2.9950                 2.1818                 3.6043
 Frc consts  --      0.3894                 0.3137                 0.5513

 IR Inten    --      2.4764                 5.1386                32.6899

                     34                     35                     36
                      A                      A                      A
 Frequencies --    565.5047               580.5054               589.5351
 Red. masses --      2.8334                 1.1701                 3.0162
 Frc consts  --      0.5339                 0.2323                 0.6176

 IR Inten    --      2.9282               135.0785                11.3904

                     37                     38                     39
                      A                      A                      A
 Frequencies --    592.1289               638.4365               710.5916
 Red. masses --      3.9616                 3.6972                 3.5074
 Frc consts  --      0.8184                 0.8879                 1.0435

 IR Inten    --     14.7580                50.5691                22.7165

                     40                     41                     42
                      A                      A                      A
 Frequencies --    768.8380               816.2250               830.3449
 Red. masses --      4.4378                 2.5178                 2.5358
 Frc consts  --      1.5455                 0.9883                 1.0301

 IR Inten    --     48.9901                25.9598                 0.8121

                     43                     44                     45
                      A                      A                      A
 Frequencies --    876.7137               885.1366               918.4003
 Red. masses --      2.5423                 1.5814                 1.6987
 Frc consts  --      1.1513                 0.7300                 0.8442

 IR Inten    --      1.5552                 1.9737               208.2851

                     46                     47                     48
                      A                      A                      A
 Frequencies --    926.2828               940.6407               950.8647
 Red. masses --      2.3170                 1.4049                 1.4919
 Frc consts  --      1.1713                 0.7324                 0.7948

 IR Inten    --     21.4579                49.6656                 2.3043

                     49                     50                     51
                      A                      A                      A
 Frequencies --    959.6617               969.4312               990.0688
 Red. masses --      1.4649                 1.6727                 1.6617
 Frc consts  --      0.7949                 0.9262                 0.9597

 IR Inten    --      2.7100                 2.0785                 4.1739

                     52                     53                     54
                      A                      A                      A
 Frequencies --   1014.0654              1017.3038              1038.9052
 Red. masses --      1.4347                 1.3195                 1.4481
 Frc consts  --      0.8692                 0.8046                 0.9209

 IR Inten    --      2.0500                 1.3406                14.4849

                     55                     56                     57
                      A                      A                      A
 Frequencies --   1060.1166              1080.1048              1103.8507
 Red. masses --      1.5783                 2.2636                 1.8039
 Frc consts  --      1.0451                 1.5559                 1.2950

 IR Inten    --      2.2313                 1.3620                59.0219

                     58                     59                     60
                      A                      A                      A
 Frequencies --   1112.0668              1112.1518              1119.6453
 Red. masses --      2.3300                 3.1304                 1.8466
 Frc consts  --      1.6977                 2.2813                 1.3639

 IR Inten    --     66.4312                65.9436                 0.9325

                     61                     62                     63
                      A                      A                      A
 Frequencies --   1170.1478              1178.9132              1196.8049
 Red. masses --      2.5399                 1.3980                 2.1781
 Frc consts  --      2.0491                 1.1448                 1.8381

 IR Inten    --    393.8038                13.3757                35.1734

                     64                     65                     66
                      A                      A                      A
 Frequencies --   1215.7046              1227.8966              1255.0768
 Red. masses --      2.5023                 2.6180                 2.0620
 Frc consts  --      2.1789                 2.3256                 1.9137

 IR Inten    --     28.9164                25.0032                32.2162

                     67                     68                     69
                      A                      A                      A
 Frequencies --   1257.9304              1268.7136              1285.4656
 Red. masses --      1.7486                 1.7602                 2.4035
 Frc consts  --      1.6303                 1.6693                 2.3400

 IR Inten    --     19.4793                25.4224                39.9384

                     70                     71                     72
                      A                      A                      A
 Frequencies --   1291.4867              1317.8749              1325.1257
 Red. masses --      1.7765                 1.4625                 1.3597
 Frc consts  --      1.7458                 1.4966                 1.4067

 IR Inten    --     34.1023                14.2971                 2.3432

                     73                     74                     75
                      A                      A                      A
 Frequencies --   1348.1263              1356.9826              1365.2989
 Red. masses --      1.5473                 1.5185                 1.6997
 Frc consts  --      1.6569                 1.6475                 1.8667

 IR Inten    --     11.3916                41.2937                46.2812

                     76                     77                     78
                      A                      A                      A
 Frequencies --   1390.5904              1394.8239              1398.6233
 Red. masses --      1.2946                 1.2521                 1.3268
 Frc consts  --      1.4750                 1.4352                 1.5291

 IR Inten    --      2.3264                 7.4609                42.9345

                     79                     80                     81
                      A                      A                      A
 Frequencies --   1407.8252              1408.3321              1414.8782
 Red. masses --      1.2496                 1.2965                 1.5235
 Frc consts  --      1.4592                 1.5151                 1.7969

 IR Inten    --     24.1132                12.4950                36.8677

                     82                     83                     84
                      A                      A                      A
 Frequencies --   1450.0579              1454.5619              1469.8817
 Red. masses --      1.3793                 1.5362                 1.0552
 Frc consts  --      1.7087                 1.9150                 1.3432

 IR Inten    --     32.6842                11.6750                 2.6626

                     85                     86                     87
                      A                      A                      A
 Frequencies --   1474.6628              1478.6532              1480.7176
 Red. masses --      1.0688                 1.0514                 1.0708
 Frc consts  --      1.3695                 1.3544                 1.3833

 IR Inten    --      0.7324                 4.7681                19.2234

                     88                     89                     90
                      A                      A                      A
 Frequencies --   1481.8676              1485.7588              1489.7736
 Red. masses --      2.3623                 1.0681                 1.2886
 Frc consts  --      3.0564                 1.3892                 1.6851

 IR Inten    --      1.3824                 1.3298                 6.9139

                     91                     92                     93
                      A                      A                      A
 Frequencies --   1490.9388              1497.2609              1499.0672
 Red. masses --      1.0799                 1.1449                 1.3101
 Frc consts  --      1.4144                 1.5123                 1.7346

 IR Inten    --      3.6580                13.0546                35.3954

                     94                     95                     96
                      A                      A                      A
 Frequencies --   1501.7378              1504.6309              1512.6132
 Red. masses --      1.0739                 1.0890                 1.1863
 Frc consts  --      1.4269                 1.4526                 1.5991

 IR Inten    --      7.4459                22.5201                22.1663

                     97                     98                     99
                      A                      A                      A
 Frequencies --   1633.8022              1852.1621              3043.5868
 Red. masses --      1.0975                10.0957                 1.0809
 Frc consts  --      1.7261                20.4054                 5.8996

 IR Inten    --     76.3138               568.4140                16.9053

                    100                    101                    102
                      A                      A                      A
 Frequencies --   3054.2791              3058.4218              3060.9578
 Red. masses --      1.0600                 1.0364                 1.0627
 Frc consts  --      5.8261                 5.7117                 5.8666

 IR Inten    --     20.0572                22.5052                49.3537

                    103                    104                    105
                      A                      A                      A
 Frequencies --   3068.2222              3069.4568              3072.2257
 Red. masses --      1.0352                 1.0363                 1.0364
 Frc consts  --      5.7418                 5.7528                 5.7637

 IR Inten    --      0.2396                58.3950                40.7387

                    106                    107                    108
                      A                      A                      A
 Frequencies --   3074.1841              3103.9975              3112.0394
 Red. masses --      1.0375                 1.1047                 1.0849
 Frc consts  --      5.7771                 6.2712                 6.1904

 IR Inten    --      5.2467                32.8298                10.8505

                    109                    110                    111
                      A                      A                      A
 Frequencies --   3115.4172              3141.8430              3143.2138
 Red. masses --      1.1023                 1.1013                 1.1027
 Frc consts  --      6.3037                 6.4051                 6.4188

 IR Inten    --     32.7455                25.0377                 9.1648

                    112                    113                    114
                      A                      A                      A
 Frequencies --   3144.0966              3146.4125              3147.6420
 Red. masses --      1.1032                 1.1019                 1.1027
 Frc consts  --      6.4251                 6.4273                 6.4371

 IR Inten    --     30.9636                59.6768                21.5836

                    115                    116                    117
                      A                      A                      A
 Frequencies --   3153.5389              3157.4168              3168.7402
 Red. masses --      1.1031                 1.1028                 1.1024
 Frc consts  --      6.4634                 6.4774                 6.5215

 IR Inten    --     23.0772                11.1426                 8.1553

                    118                    119                    120
                      A                      A                      A
 Frequencies --   3170.9978              3171.6898              3520.2680
 Red. masses --      1.1017                 1.1014                 1.0509
 Frc consts  --      6.5271                 6.5280                 7.6728

 IR Inten    --     13.0138                33.9713                 2.8783

                    121                    122                    123
                      A                      A                      A
 Frequencies --   3600.2233              3809.9960              3877.4266
 Red. masses --      1.0919                 1.0650                 1.0666
 Frc consts  --      8.3383                 9.1082                 9.4476

 IR Inten    --     10.1044               144.7613                71.2105

 - Thermochemistry -
 -------------------
 Temperature   298.150 Kelvin.  Pressure   1.00000 Atm.
 Atom     1 has atomic number  8 and mass  15.99491

 Molecular mass:   261.18143 amu.
 Principal axes and moments of inertia in atomic units:
                           1         2         3
     Eigenvalues --  2371.038978851.59023**********
           X            0.99999  -0.00357   0.00067
           Y            0.00356   0.99991   0.01331
           Z           -0.00072  -0.01330   0.99991
 This molecule is an asymmetric top.
 Rotational symmetry number  1.
 Warning -- assumption of classical behavior for rotation
           may cause significant error
 Rotational temperatures (Kelvin)      0.03653     0.00979     0.00862
 Rotational constants (GHZ):           0.76116     0.20389     0.17957
 Zero-point vibrational energy     992483.7 (Joules/Mol)
                                  237.20930 (Kcal/Mol)
 Warning -- explicit consideration of  37 degrees of freedom as
           vibrations may cause significant error
 Vibrational temperatures:     25.94    44.63    50.68    64.32    79.47
          (Kelvin)             95.18   119.85   142.24   185.40   247.61
                              279.69   299.25   304.77   328.02   355.15
                              366.18   389.29   406.79   419.86   430.33
                              451.53   457.57   471.40   475.87   491.31
                              551.85   553.44   583.45   595.55   615.70
                              675.85   710.71   733.06   813.64   835.22
                              848.21   851.94   918.57  1022.38  1106.19
                             1174.37  1194.68  1261.40  1273.51  1321.37
                             1332.71  1353.37  1368.08  1380.74  1394.80
                             1424.49  1459.01  1463.67  1494.75  1525.27
                             1554.03  1588.19  1600.02  1600.14  1610.92
                             1683.58  1696.19  1721.94  1749.13  1766.67
                             1805.78  1809.88  1825.40  1849.50  1858.16
                             1896.13  1906.56  1939.65  1952.40  1964.36
                             2000.75  2006.84  2012.31  2025.55  2026.28
                             2035.69  2086.31  2092.79  2114.83  2121.71
                             2127.45  2130.42  2132.08  2137.68  2143.45
                             2145.13  2154.22  2156.82  2160.67  2164.83
                             2176.31  2350.68  2664.85  4379.04  4394.43
                             4400.39  4404.04  4414.49  4416.26  4420.25
                             4423.07  4465.96  4477.53  4482.39  4520.41
                             4522.38  4523.65  4526.99  4528.75  4537.24
                             4542.82  4559.11  4562.36  4563.35  5064.88
                             5179.92  5481.73  5578.75

 Zero-point correction=                           0.378017 (Hartree/Particle)
 Thermal correction to Energy=                    0.399992
 Thermal correction to Enthalpy=                  0.400936
 Thermal correction to Gibbs Free Energy=         0.325419
 Sum of electronic and zero-point Energies=           -882.194028
 Sum of electronic and thermal Energies=              -882.172053
 Sum of electronic and thermal Enthalpies=            -882.171109
 Sum of electronic and thermal Free Energies=         -882.246626

                     E (Thermal)             CV                S
                      KCal/Mol        Cal/Mol-Kelvin    Cal/Mol-Kelvin
 Total                  250.998             81.605            158.939
 Electronic               0.000              0.000              1.377
 Translational            0.889              2.981             42.580
 Rotational               0.889              2.981             33.711
 Vibrational            249.221             75.644             81.271
 Vibration     1          0.593              1.986              6.841
 Vibration     2          0.594              1.983              5.763
 Vibration     3          0.594              1.982              5.511
 Vibration     4          0.595              1.980              5.039
 Vibration     5          0.596              1.975              4.621
 Vibration     6          0.598              1.970              4.265
 Vibration     7          0.600              1.961              3.812
 Vibration     8          0.604              1.950              3.477
 Vibration     9          0.611              1.924              2.963
 Vibration    10          0.626              1.877              2.412
 Vibration    11          0.635              1.848              2.186
 Vibration    12          0.641              1.828              2.061
 Vibration    13          0.643              1.823              2.028
 Vibration    14          0.651              1.798              1.895
 Vibration    15          0.661              1.768              1.753
 Vibration    16          0.665              1.755              1.699
 Vibration    17          0.674              1.727              1.593
 Vibration    18          0.682              1.706              1.517
 Vibration    19          0.687              1.689              1.463
 Vibration    20          0.692              1.675              1.422
 Vibration    21          0.702              1.647              1.342
 Vibration    22          0.704              1.639              1.320
 Vibration    23          0.711              1.620              1.272
 Vibration    24          0.713              1.614              1.256
 Vibration    25          0.721              1.593              1.205
 Vibration    26          0.753              1.505              1.025
 Vibration    27          0.754              1.503              1.021
 Vibration    28          0.770              1.458              0.943
 Vibration    29          0.778              1.440              0.913
 Vibration    30          0.789              1.409              0.865
 Vibration    31          0.827              1.317              0.738
 Vibration    32          0.850              1.263              0.673
 Vibration    33          0.865              1.229              0.635
 Vibration    34          0.921              1.106              0.513
 Vibration    35          0.937              1.073              0.484
 Vibration    36          0.947              1.054              0.468
 Vibration    37          0.950              1.049              0.463

 Optimization completed.
    -- Stationary point found.
 Normal termination of Gaussian 16 at Fri Dec 25 03:30:44 2020.
