 Gaussian 16, Revision A.03,
 Gaussian 16:  ES64L-G16RevA.03 25-Dec-2016

 -------------------------------------------------------------
 # opt=calcall freq 6-311g(d,p) scrf=(solvent=water,pcm) m062x
 -------------------------------------------------------------

 -------------------
 Title Card Required
 -------------------
 Symbolic Z-matrix:
 Charge =  0 Multiplicity = 2

 SCF Done:  E(UM062X) =  -882.548715280     A.U. after   15 cycles
 SCF Done:  E(UM062X) =  -882.558403076     A.U. after   16 cycles
 SCF Done:  E(UM062X) =  -882.563863806     A.U. after   16 cycles
 SCF Done:  E(UM062X) =  -882.569714570     A.U. after   16 cycles
 SCF Done:  E(UM062X) =  -882.536208170     A.U. after   17 cycles
 SCF Done:  E(UM062X) =  -882.565598600     A.U. after   14 cycles
 SCF Done:  E(UM062X) =  -882.569743772     A.U. after    8 cycles
 SCF Done:  E(UM062X) =  -882.555913931     A.U. after   17 cycles
 SCF Done:  E(UM062X) =  -882.563211647     A.U. after   14 cycles
 SCF Done:  E(UM062X) =  -882.569851215     A.U. after   13 cycles
 SCF Done:  E(UM062X) =  -882.572154599     A.U. after   11 cycles
 SCF Done:  E(UM062X) =  -882.572156602     A.U. after   11 cycles
 SCF Done:  E(UM062X) =  -882.572152968     A.U. after   12 cycles
 SCF Done:  E(UM062X) =  -882.572153806     A.U. after   13 cycles
 SCF Done:  E(UM062X) =  -882.572158321     A.U. after   12 cycles
 SCF Done:  E(UM062X) =  -882.572158256     A.U. after   12 cycles
 SCF Done:  E(UM062X) =  -882.572157081     A.U. after   10 cycles
 SCF Done:  E(UM062X) =  -882.572159030     A.U. after   12 cycles
 SCF Done:  E(UM062X) =  -882.572159088     A.U. after    8 cycles
 Optimization completed.
    -- Stationary point found.
 Normal termination of Gaussian 16 at Mon Apr 26 20:14:53 2021.

 ----------------------------------------------------------------------
 #N Geom=AllCheck Guess=TCheck SCRF=Check GenChk UM062X/6-311G(d,p) Fre
 q
 ----------------------------------------------------------------------

 Structure from the checkpoint file:  "Tem_Ala_Cb_4.chk"
 -------------------
 Title Card Required
 -------------------
 Charge =  0 Multiplicity = 2

                         Standard orientation:
 ---------------------------------------------------------------------
 Center     Atomic      Atomic             Coordinates (Angstroms)
 Number     Number       Type             X           Y           Z
 ---------------------------------------------------------------------
      1          8           0        4.430590   -1.949229   -0.140144
      2          1           0        5.235606   -1.616431    0.267957
      3          6           0        2.452575    1.294368   -0.048471
      4          7           0        1.148852    0.641885   -0.373889
      5          8           0        0.138820    1.412712   -0.418501
      6          6           0        3.603384    0.324118   -0.331465
      7          6           0        3.365882   -1.076633    0.212927
      8          6           0        2.110861   -1.641493   -0.423652
      9          6           0        0.858175   -0.805664   -0.147241
     10          6           0       -0.243056   -1.205518   -1.129031
     11          6           0        2.588542    2.519304   -0.953135
     12          6           0        0.356586   -0.997693    1.291825
     13          6           0        2.434202    1.745847    1.419005
     14          1           0        4.518135    0.749884    0.092920
     15          1           0        3.751677    0.235342   -1.413015
     16          1           0        1.934423   -2.659298   -0.065982
     17          1           0        2.284794   -1.695503   -1.503752
     18          1           0       -0.439564   -2.275861   -1.030574
     19          1           0        0.069657   -1.001310   -2.155177
     20          1           0       -1.163763   -0.656566   -0.933913
     21          1           0        2.495932    2.229348   -2.001707
     22          1           0        3.571955    2.967971   -0.798653
     23          1           0        1.821881    3.257271   -0.721961
     24          1           0        3.261320   -1.050795    1.304308
     25          1           0       -0.446885   -0.288316    1.497840
     26          1           0       -0.033695   -2.011999    1.406634
     27          1           0        1.144938   -0.855880    2.031243
     28          1           0        3.303919    2.377064    1.613552
     29          1           0        1.530230    2.327802    1.607142
     30          1           0        2.462716    0.906986    2.114762
     31          8           0       -5.183050    0.805037   -0.831358
     32          8           0       -3.780257   -0.848942   -1.371114
     33          7           0       -3.251253   -1.369934    1.253342
     34          6           0       -3.873335   -0.094641    0.919112
     35          6           0       -2.996097    1.147345    1.152084
     36          6           0       -4.264061   -0.122571   -0.541856
     37          1           0       -4.794205    0.013672    1.497959
     38          1           0       -2.798285   -1.295745    2.158698
     39          1           0       -2.523029   -1.573585    0.574500
     40          1           0       -5.346216    0.781989   -1.785425
     41          1           0       -2.092965    1.106863    0.536042
     42          1           0       -3.544204    2.061396    0.916742
     43          1           0       -2.698347    1.184810    2.202023
 ---------------------------------------------------------------------

 SCF Done:  E(UM062X) =  -882.572159088     A.U. after    1 cycles

 The electronic state is 2-A.
 Alpha  occ. eigenvalues --  -19.67192 -19.62434 -19.62192 -19.61825 -14.83883
 Alpha  occ. eigenvalues --  -14.72743 -10.68217 -10.59292 -10.59215 -10.59213
 Alpha  occ. eigenvalues --  -10.58428 -10.53839 -10.53822 -10.53123 -10.53096
 Alpha  occ. eigenvalues --  -10.52973 -10.52717 -10.52626  -1.24752  -1.23321
 Alpha  occ. eigenvalues --   -1.15170  -1.14951  -1.00360  -0.98215  -0.92937
 Alpha  occ. eigenvalues --   -0.86159  -0.85173  -0.82213  -0.79370  -0.78365
 Alpha  occ. eigenvalues --   -0.78205  -0.76309  -0.69225  -0.68746  -0.67601
 Alpha  occ. eigenvalues --   -0.61697  -0.61250  -0.59131  -0.58981  -0.57578
 Alpha  occ. eigenvalues --   -0.56827  -0.55898  -0.55126  -0.52893  -0.52632
 Alpha  occ. eigenvalues --   -0.51485  -0.50937  -0.50164  -0.49839  -0.48382
 Alpha  occ. eigenvalues --   -0.48235  -0.47701  -0.47471  -0.46344  -0.45843
 Alpha  occ. eigenvalues --   -0.44617  -0.44514  -0.44003  -0.43542  -0.43235
 Alpha  occ. eigenvalues --   -0.42676  -0.41583  -0.40784  -0.40463  -0.39882
 Alpha  occ. eigenvalues --   -0.39838  -0.37982  -0.36148  -0.34709  -0.33709
 Alpha  occ. eigenvalues --   -0.31758  -0.26704
 Alpha virt. eigenvalues --    0.04662   0.06475   0.07620   0.08176   0.08838
 Alpha virt. eigenvalues --    0.09527   0.09778   0.10729   0.11822   0.12166
 Alpha virt. eigenvalues --    0.12560   0.13494   0.14488   0.14989   0.15723

  Beta  occ. eigenvalues --  -19.67192 -19.62192 -19.61825 -19.61391 -14.83068
  Beta  occ. eigenvalues --  -14.72743 -10.68217 -10.59321 -10.59244 -10.59215
  Beta  occ. eigenvalues --  -10.58428 -10.53837 -10.53820 -10.53094 -10.53088
  Beta  occ. eigenvalues --  -10.52938 -10.52704 -10.52613  -1.24752  -1.20367
  Beta  occ. eigenvalues --   -1.15170  -1.14947  -1.00359  -0.96995  -0.92752
  Beta  occ. eigenvalues --   -0.85569  -0.85165  -0.80601  -0.79150  -0.78299
  Beta  occ. eigenvalues --   -0.78126  -0.76302  -0.68964  -0.68232  -0.67592
  Beta  occ. eigenvalues --   -0.61294  -0.61221  -0.58982  -0.58574  -0.56491
  Beta  occ. eigenvalues --   -0.56127  -0.55122  -0.53072  -0.52769  -0.52127
  Beta  occ. eigenvalues --   -0.51226  -0.50896  -0.50043  -0.49610  -0.48322
  Beta  occ. eigenvalues --   -0.47672  -0.47297  -0.46922  -0.46128  -0.45683
  Beta  occ. eigenvalues --   -0.44581  -0.43722  -0.43560  -0.43407  -0.42635
  Beta  occ. eigenvalues --   -0.42261  -0.41284  -0.40540  -0.40129  -0.39674
  Beta  occ. eigenvalues --   -0.38090  -0.37047  -0.36144  -0.34617  -0.32208
  Beta  occ. eigenvalues --   -0.31755
  Beta virt. eigenvalues --   -0.01556   0.04664   0.06512   0.07661   0.08174
  Beta virt. eigenvalues --    0.08845   0.09551   0.09768   0.10845   0.11851
  Beta virt. eigenvalues --    0.12224   0.12592   0.13538   0.14503   0.14988

 Mulliken charges and spin densities:
               1          2
     1  O   -0.459451   0.000077
     2  H    0.279198   0.000038
     3  C   -0.112729  -0.012488
     4  N   -0.086064   0.465649
     5  O   -0.345636   0.489618
     6  C   -0.258286   0.007066
     7  C    0.019936  -0.003284
     8  C   -0.255116   0.006567
     9  C   -0.096538  -0.011527
    10  C   -0.337189   0.005853
    11  C   -0.324285   0.005360
    12  C   -0.342841   0.029683
    13  C   -0.322079   0.030508
    14  H    0.172510  -0.001366
    15  H    0.165080  -0.000509
    16  H    0.174232  -0.001366
    17  H    0.166685  -0.000453
    18  H    0.155549  -0.001292
    19  H    0.152990   0.000077
    20  H    0.127382  -0.001857
    21  H    0.148439  -0.000119
    22  H    0.149820  -0.001322
    23  H    0.151372  -0.001238
    24  H    0.156613  -0.000562
    25  H    0.149765  -0.002504
    26  H    0.159724   0.001922
    27  H    0.148040  -0.001085
    28  H    0.156416   0.001939
    29  H    0.156721  -0.003037
    30  H    0.143195  -0.001019
    31  O   -0.371577   0.000000
    32  O   -0.396900   0.000012
    33  N   -0.504512   0.000136
    34  C   -0.192246   0.000119
    35  C   -0.392260   0.002033
    36  C    0.448866   0.000018
    37  H    0.194448   0.000078
    38  H    0.235029   0.000120
    39  H    0.217777  -0.000083
    40  H    0.301186   0.000001
    41  H    0.154230  -0.001641
    42  H    0.154006   0.000004
    43  H    0.158499  -0.000124
 Sum of Mulliken charges =   0.00000   1.00000

 Dipole moment (field-independent basis, Debye):
    X=              3.9135    Y=              1.9901    Z=              2.9837  Tot=              5.3084
 Quadrupole moment (field-independent basis, Debye-Ang):
   XX=            -97.8128   YY=           -121.6699   ZZ=           -106.6018
   XY=             -2.6451   XZ=              6.7513   YZ=             -2.9638

  Exact polarizability: 215.453  -8.442 206.698   2.905   3.173 194.398
 Approx polarizability: 192.570 -11.702 189.002   0.396   4.302 182.124

                      1                      2                      3
                      A                      A                      A
 Frequencies --     21.9491                28.3199                31.3004
 Red. masses --      5.0510                 5.2787                 4.1994
 Frc consts  --      0.0014                 0.0025                 0.0024

 IR Inten    --      1.2666                 0.7736                 0.2445

                      4                      5                      6
                      A                      A                      A
 Frequencies --     47.2878                54.3940                71.0001
 Red. masses --      6.4107                 7.5803                 4.0334
 Frc consts  --      0.0084                 0.0132                 0.0120

 IR Inten    --      0.7181                 3.4692                 0.9073

                      7                      8                      9
                      A                      A                      A
 Frequencies --     88.1785               103.8741               133.3416
 Red. masses --      4.9456                 3.2463                 2.5211
 Frc consts  --      0.0227                 0.0206                 0.0264

 IR Inten    --      9.6152                 1.2945                 1.7214

                     10                     11                     12
                      A                      A                      A
 Frequencies --    173.3729               200.6309               210.9478
 Red. masses --      3.2391                 1.0975                 3.0836
 Frc consts  --      0.0574                 0.0260                 0.0808

 IR Inten    --      0.7741                 1.0271                 0.5626

                     13                     14                     15
                      A                      A                      A
 Frequencies --    227.1683               252.2342               254.0533
 Red. masses --      1.1604                 1.3933                 1.9481
 Frc consts  --      0.0353                 0.0522                 0.0741

 IR Inten    --     66.9373                 0.2501                 3.6415

                     16                     17                     18
                      A                      A                      A
 Frequencies --    264.2770               275.5751               284.6634
 Red. masses --      1.3645                 1.0965                 1.2352
 Frc consts  --      0.0561                 0.0491                 0.0590

 IR Inten    --     70.0597                47.5604                 6.6997

                     19                     20                     21
                      A                      A                      A
 Frequencies --    291.9922               299.8100               303.5661
 Red. masses --      1.9834                 1.2857                 2.0657
 Frc consts  --      0.0996                 0.0681                 0.1122

 IR Inten    --     64.8426                 6.6504                 0.2782

                     22                     23                     24
                      A                      A                      A
 Frequencies --    316.7744               324.7773               332.1866
 Red. masses --      2.9248                 1.9493                 2.4885
 Frc consts  --      0.1729                 0.1211                 0.1618

 IR Inten    --      1.5014                 2.8534                 2.6551

                     25                     26                     27
                      A                      A                      A
 Frequencies --    343.9779               386.0532               387.9995
 Red. masses --      2.5430                 2.8731                 2.8334
 Frc consts  --      0.1773                 0.2523                 0.2513

 IR Inten    --      3.4574                 2.3483                 5.7339

                     28                     29                     30
                      A                      A                      A
 Frequencies --    406.7102               412.2599               428.5259
 Red. masses --      3.7209                 4.4202                 2.6792
 Frc consts  --      0.3626                 0.4426                 0.2899

 IR Inten    --     26.7022                 0.5612                 9.6761

                     31                     32                     33
                      A                      A                      A
 Frequencies --    469.7285               493.3584               510.2480
 Red. masses --      3.0060                 2.1834                 3.6119
 Frc consts  --      0.3908                 0.3131                 0.5540

 IR Inten    --      2.6807                 4.3158                32.9275

                     34                     35                     36
                      A                      A                      A
 Frequencies --    566.1072               579.3280               588.6110
 Red. masses --      2.8325                 1.1774                 2.9945
 Frc consts  --      0.5348                 0.2328                 0.6113

 IR Inten    --      2.4393               136.4051                 8.5579

                     37                     38                     39
                      A                      A                      A
 Frequencies --    591.7878               640.2337               708.9053
 Red. masses --      4.0068                 3.6600                 3.4736
 Frc consts  --      0.8268                 0.8839                 1.0285

 IR Inten    --     18.1018                46.6248                23.2724

                     40                     41                     42
                      A                      A                      A
 Frequencies --    768.1488               815.8176               830.1555
 Red. masses --      4.4461                 2.5099                 2.5396
 Frc consts  --      1.5457                 0.9842                 1.0312

 IR Inten    --     49.5744                38.5437                 0.7063

                     43                     44                     45
                      A                      A                      A
 Frequencies --    876.4256               886.0941               904.8398
 Red. masses --      2.5479                 1.5773                 1.4965
 Frc consts  --      1.1531                 0.7297                 0.7219

 IR Inten    --      1.8809                 1.1006               242.1641

                     46                     47                     48
                      A                      A                      A
 Frequencies --    924.4234               939.0099               949.4132
 Red. masses --      2.2922                 1.5562                 1.4602
 Frc consts  --      1.1541                 0.8085                 0.7755

 IR Inten    --     18.6712                18.1931                 3.8019

                     49                     50                     51
                      A                      A                      A
 Frequencies --    955.2965               967.5094               989.6981
 Red. masses --      1.4713                 1.6855                 1.6618
 Frc consts  --      0.7911                 0.9296                 0.9591

 IR Inten    --      1.6361                 0.1963                 3.9828

                     52                     53                     54
                      A                      A                      A
 Frequencies --   1010.0770              1015.3921              1043.0369
 Red. masses --      1.4252                 1.3366                 1.4576
 Frc consts  --      0.8567                 0.8119                 0.9343

 IR Inten    --      4.8064                 1.0703                 9.9221

                     55                     56                     57
                      A                      A                      A
 Frequencies --   1059.7326              1082.5605              1104.8217
 Red. masses --      1.5816                 2.2916                 1.8670
 Frc consts  --      1.0465                 1.5823                 1.3427

 IR Inten    --      3.6215                 1.2546                62.9373

                     58                     59                     60
                      A                      A                      A
 Frequencies --   1110.4432              1113.5752              1119.9502
 Red. masses --      2.9330                 2.1647                 1.9093
 Frc consts  --      2.1308                 1.5816                 1.4110

 IR Inten    --     40.6706                70.0803                 0.4406

                     61                     62                     63
                      A                      A                      A
 Frequencies --   1169.9203              1179.4090              1197.7581
 Red. masses --      1.4179                 2.2680                 2.2079
 Frc consts  --      1.1434                 1.8588                 1.8662

 IR Inten    --    182.8875               219.2479                32.9796

                     64                     65                     66
                      A                      A                      A
 Frequencies --   1215.1619              1228.3856              1254.0131
 Red. masses --      2.4764                 2.6267                 1.9415
 Frc consts  --      2.1545                 2.3352                 1.7988

 IR Inten    --     33.2994                27.1505                24.4349

                     67                     68                     69
                      A                      A                      A
 Frequencies --   1256.4219              1269.2337              1285.7050
 Red. masses --      2.0099                 1.7463                 2.5280
 Frc consts  --      1.8693                 1.6575                 2.4621

 IR Inten    --     38.6983                30.1558                25.4464

                     70                     71                     72
                      A                      A                      A
 Frequencies --   1292.0438              1323.1341              1325.8979
 Red. masses --      1.7220                 1.5055                 1.3538
 Frc consts  --      1.6937                 1.5529                 1.4022

 IR Inten    --     41.1673                10.3444                 1.7728

                     73                     74                     75
                      A                      A                      A
 Frequencies --   1348.4196              1363.1356              1366.3298
 Red. masses --      1.5595                 1.4118                 1.6666
 Frc consts  --      1.6706                 1.5456                 1.8332

 IR Inten    --     10.4555                45.9975                43.3517

                     76                     77                     78
                      A                      A                      A
 Frequencies --   1390.2880              1396.2772              1403.1877
 Red. masses --      1.3005                 1.3392                 1.2412
 Frc consts  --      1.4811                 1.5383                 1.4399

 IR Inten    --      2.2742                40.3955                14.3910

                     79                     80                     81
                      A                      A                      A
 Frequencies --   1408.9376              1409.4463              1416.6327
 Red. masses --      1.2519                 1.2654                 1.5457
 Frc consts  --      1.4642                 1.4810                 1.8277

 IR Inten    --     21.3130                10.4078                35.4993

                     82                     83                     84
                      A                      A                      A
 Frequencies --   1454.6405              1455.4901              1470.5827
 Red. masses --      1.6818                 1.5809                 1.0597
 Frc consts  --      2.0967                 1.9733                 1.3503

 IR Inten    --     26.2176                25.8005                 3.1189

                     85                     86                     87
                      A                      A                      A
 Frequencies --   1475.7506              1478.5063              1481.1645
 Red. masses --      1.0713                 1.0675                 3.3139
 Frc consts  --      1.3747                 1.3748                 4.2834

 IR Inten    --      1.7896                 8.9738                 4.1178

                     88                     89                     90
                      A                      A                      A
 Frequencies --   1486.3851              1490.8178              1492.3235
 Red. masses --      1.0840                 1.1139                 1.1005
 Frc consts  --      1.4110                 1.4587                 1.4440

 IR Inten    --      1.4629                 5.3153                 6.3883

                     91                     92                     93
                      A                      A                      A
 Frequencies --   1494.1125              1497.9239              1502.8803
 Red. masses --      1.0541                 1.1346                 1.0819
 Frc consts  --      1.3865                 1.4999                 1.4397

 IR Inten    --     12.4834                15.8112                 7.3741

                     94                     95                     96
                      A                      A                      A
 Frequencies --   1508.0793              1510.3720              1517.6674
 Red. masses --      1.0730                 1.1791                 1.1239
 Frc consts  --      1.4378                 1.5848                 1.5252

 IR Inten    --     27.4514                 8.8766                48.4792

                     97                     98                     99
                      A                      A                      A
 Frequencies --   1633.5229              1846.8394              3045.0316
 Red. masses --      1.1000                 9.9734                 1.0806
 Frc consts  --      1.7295                20.0424                 5.9031

 IR Inten    --     84.9860               528.5222                15.5665

                    100                    101                    102
                      A                      A                      A
 Frequencies --   3054.8597              3055.3563              3063.0091
 Red. masses --      1.0596                 1.0359                 1.0616
 Frc consts  --      5.8263                 5.6974                 5.8682

 IR Inten    --     23.9489                13.1134                40.8123

                    103                    104                    105
                      A                      A                      A
 Frequencies --   3067.9672              3069.5792              3071.5288
 Red. masses --      1.0362                 1.0367                 1.0369
 Frc consts  --      5.7463                 5.7552                 5.7634

 IR Inten    --      8.6833                51.2630                37.7303

                    106                    107                    108
                      A                      A                      A
 Frequencies --   3073.9998              3089.5848              3104.0480
 Red. masses --      1.0377                 1.0848                 1.1048
 Frc consts  --      5.7775                 6.1010                 6.2717

 IR Inten    --      5.3098                23.9262                32.8330

                    109                    110                    111
                      A                      A                      A
 Frequencies --   3116.8327              3136.9090              3142.0128
 Red. masses --      1.1027                 1.1037                 1.1029
 Frc consts  --      6.3117                 6.3989                 6.4149

 IR Inten    --     30.1015                14.6261                15.2077

                    112                    113                    114
                      A                      A                      A
 Frequencies --   3144.4416              3145.8743              3146.5610
 Red. masses --      1.1031                 1.1021                 1.1028
 Frc consts  --      6.4263                 6.4261                 6.4331

 IR Inten    --     23.4270                46.2239                29.1160

                    115                    116                    117
                      A                      A                      A
 Frequencies --   3148.0363              3157.3481              3167.1881
 Red. masses --      1.1023                 1.1030                 1.1012
 Frc consts  --      6.4362                 6.4787                 6.5083

 IR Inten    --     19.8410                 8.0015                28.7142

                    118                    119                    120
                      A                      A                      A
 Frequencies --   3169.6031              3170.1145              3530.8342
 Red. masses --      1.1019                 1.1010                 1.0500
 Frc consts  --      6.5224                 6.5192                 7.7128

 IR Inten    --      6.5414                31.1858                 9.1633

                    121                    122                    123
                      A                      A                      A
 Frequencies --   3610.3061              3810.2932              3876.9190
 Red. masses --      1.0925                 1.0650                 1.0666
 Frc consts  --      8.3901                 9.1097                 9.4454

 IR Inten    --     20.0604               152.1929                72.6195

 - Thermochemistry -
 -------------------
 Temperature   298.150 Kelvin.  Pressure   1.00000 Atm.
 Atom     1 has atomic number  8 and mass  15.99491

 Molecular mass:   261.18143 amu.
 Principal axes and moments of inertia in atomic units:
                           1         2         3
     Eigenvalues --  2425.554279525.03598**********
           X            0.99997   0.00533  -0.00490
           Y           -0.00531   0.99997   0.00495
           Z            0.00493  -0.00492   0.99998
 This molecule is an asymmetric top.
 Rotational symmetry number  1.
 Warning -- assumption of classical behavior for rotation
           may cause significant error
 Rotational temperatures (Kelvin)      0.03571     0.00909     0.00837
 Rotational constants (GHZ):           0.74405     0.18947     0.17446
 Zero-point vibrational energy     993121.6 (Joules/Mol)
                                  237.36176 (Kcal/Mol)
 Warning -- explicit consideration of  37 degrees of freedom as
           vibrations may cause significant error
 Vibrational temperatures:     31.58    40.75    45.03    68.04    78.26
          (Kelvin)            102.15   126.87   149.45   191.85   249.44
                              288.66   303.51   326.84   362.91   365.53
                              380.24   396.49   409.57   420.11   431.36
                              436.76   455.77   467.28   477.94   494.91
                              555.44   558.24   585.17   593.15   616.55
                              675.83   709.83   734.13   814.50   833.52
                              846.88   851.45   921.15  1019.96  1105.19
                             1173.78  1194.41  1260.98  1274.89  1301.86
                             1330.04  1351.03  1365.99  1374.46  1392.03
                             1423.95  1453.28  1460.92  1500.70  1524.72
                             1557.56  1589.59  1597.68  1602.19  1611.36
                             1683.25  1696.91  1723.31  1748.35  1767.37
                             1804.25  1807.71  1826.14  1849.84  1858.96
                             1903.69  1907.67  1940.08  1961.25  1965.84
                             2000.31  2008.93  2018.87  2027.15  2027.88
                             2038.22  2092.90  2094.13  2115.84  2123.28
                             2127.24  2131.07  2138.58  2144.95  2147.12
                             2149.69  2155.18  2162.31  2169.79  2173.09
                             2183.58  2350.28  2657.19  4381.12  4395.26
                             4395.98  4406.99  4414.12  4416.44  4419.24
                             4422.80  4445.22  4466.03  4484.43  4513.31
                             4520.66  4524.15  4526.21  4527.20  4529.32
                             4542.72  4556.88  4560.35  4561.09  5080.08
                             5194.43  5482.16  5578.02

 Zero-point correction=                           0.378260 (Hartree/Particle)
 Thermal correction to Energy=                    0.400102
 Thermal correction to Enthalpy=                  0.401046
 Thermal correction to Gibbs Free Energy=         0.325942
 Sum of electronic and zero-point Energies=           -882.193899
 Sum of electronic and thermal Energies=              -882.172057
 Sum of electronic and thermal Enthalpies=            -882.171113
 Sum of electronic and thermal Free Energies=         -882.246217

                     E (Thermal)             CV                S
                      KCal/Mol        Cal/Mol-Kelvin    Cal/Mol-Kelvin
 Total                  251.068             81.494            158.069
 Electronic               0.000              0.000              1.377
 Translational            0.889              2.981             42.580
 Rotational               0.889              2.981             33.835
 Vibrational            249.290             75.533             80.277
 Vibration     1          0.593              1.985              6.450
 Vibration     2          0.593              1.984              5.944
 Vibration     3          0.594              1.983              5.745
 Vibration     4          0.595              1.979              4.928
 Vibration     5          0.596              1.976              4.651
 Vibration     6          0.598              1.968              4.125
 Vibration     7          0.601              1.957              3.700
 Vibration     8          0.605              1.946              3.380
 Vibration     9          0.613              1.920              2.897
 Vibration    10          0.627              1.875              2.399
 Vibration    11          0.638              1.839              2.127
 Vibration    12          0.643              1.824              2.035
 Vibration    13          0.651              1.800              1.901
 Vibration    14          0.664              1.759              1.715
 Vibration    15          0.665              1.756              1.702
 Vibration    16          0.671              1.738              1.633
 Vibration    17          0.677              1.719              1.561
 Vibration    18          0.683              1.702              1.505
 Vibration    19          0.687              1.689              1.462
 Vibration    20          0.692              1.674              1.418
 Vibration    21          0.695              1.667              1.397
 Vibration    22          0.704              1.642              1.327
 Vibration    23          0.709              1.626              1.286
 Vibration    24          0.714              1.611              1.249
 Vibration    25          0.723              1.588              1.194
 Vibration    26          0.755              1.500              1.015
 Vibration    27          0.756              1.496              1.008
 Vibration    28          0.771              1.456              0.938
 Vibration    29          0.776              1.444              0.919
 Vibration    30          0.790              1.408              0.863
 Vibration    31          0.827              1.317              0.738
 Vibration    32          0.849              1.265              0.675
 Vibration    33          0.865              1.227              0.633
 Vibration    34          0.922              1.105              0.512
 Vibration    35          0.936              1.076              0.487
 Vibration    36          0.946              1.056              0.470
 Vibration    37          0.949              1.049              0.464

 Optimization completed.
    -- Stationary point found.
 Normal termination of Gaussian 16 at Mon Apr 26 21:18:17 2021.
