 Gaussian 16, Revision A.03,
 Gaussian 16:  ES64L-G16RevA.03 25-Dec-2016

 -----------------------------------------------------
 # scrf=(solvent=water,pcm) opt freq m062x/6-311g(d,p)
 -----------------------------------------------------

 -------------------
 Title Card Required
 -------------------
 Symbolic Z-matrix:
 Charge =  0 Multiplicity = 2

 SCF Done:  E(UM062X) =  -959.929923975     A.U. after   17 cycles
 SCF Done:  E(UM062X) =  -959.952570435     A.U. after   16 cycles
 SCF Done:  E(UM062X) =  -959.949843811     A.U. after   16 cycles
 SCF Done:  E(UM062X) =  -959.965529831     A.U. after   14 cycles
 SCF Done:  E(UM062X) =  -959.959809091     A.U. after   17 cycles
 SCF Done:  E(UM062X) =  -959.967611646     A.U. after   14 cycles
 SCF Done:  E(UM062X) =  -959.967750547     A.U. after   17 cycles
 SCF Done:  E(UM062X) =  -959.968840104     A.U. after   13 cycles
 SCF Done:  E(UM062X) =  -959.965676698     A.U. after   14 cycles
 SCF Done:  E(UM062X) =  -959.969975407     A.U. after   13 cycles
 SCF Done:  E(UM062X) =  -959.973183358     A.U. after   10 cycles
 SCF Done:  E(UM062X) =  -959.973218419     A.U. after   12 cycles
 SCF Done:  E(UM062X) =  -959.973229269     A.U. after   11 cycles
 SCF Done:  E(UM062X) =  -959.973234448     A.U. after    9 cycles
 SCF Done:  E(UM062X) =  -959.973236474     A.U. after    8 cycles
 SCF Done:  E(UM062X) =  -959.973238220     A.U. after   10 cycles
 SCF Done:  E(UM062X) =  -959.973238699     A.U. after   10 cycles
 SCF Done:  E(UM062X) =  -959.973238927     A.U. after    8 cycles
 SCF Done:  E(UM062X) =  -959.973239024     A.U. after    7 cycles
 Optimization completed.
    -- Stationary point found.
 Normal termination of Gaussian 16 at Tue Dec 22 14:42:17 2020.

 ----------------------------------------------------------------------
 #N Geom=AllCheck Guess=TCheck SCRF=Check GenChk UM062X/6-311G(d,p) Fre
 q
 ----------------------------------------------------------------------

 Structure from the checkpoint file:  "Tem_Prop_2.chk"
 -------------------
 Title Card Required
 -------------------
 Charge =  0 Multiplicity = 2

                         Standard orientation:
 ---------------------------------------------------------------------
 Center     Atomic      Atomic             Coordinates (Angstroms)
 Number     Number       Type             X           Y           Z
 ---------------------------------------------------------------------
      1          8           0       -5.051689    1.047491    0.928967
      2          1           0       -5.600903    0.385730    1.359924
      3          6           0       -2.367605   -1.302491   -0.380665
      4          7           0       -1.419775   -0.204330   -0.735088
      5          8           0       -0.303129   -0.571579   -1.220190
      6          6           0       -3.759186   -0.718391   -0.119832
      7          6           0       -3.745499    0.506674    0.782298
      8          6           0       -2.899948    1.584344    0.131867
      9          6           0       -1.451076    1.157561   -0.121220
     10          6           0       -0.816605    2.123802   -1.123750
     11          6           0       -2.433586   -2.255110   -1.574491
     12          6           0       -0.630859    1.140608    1.178570
     13          6           0       -1.823943   -2.054729    0.842529
     14          1           0       -4.382062   -1.506590    0.314779
     15          1           0       -4.216806   -0.422184   -1.069822
     16          1           0       -2.890785    2.481472    0.756507
     17          1           0       -3.376861    1.847706   -0.818404
     18          1           0       -0.903337    3.141439   -0.737105
     19          1           0       -1.336857    2.068042   -2.082227
     20          1           0        0.236710    1.897996   -1.285805
     21          1           0       -2.715123   -1.712130   -2.478969
     22          1           0       -3.186396   -3.020781   -1.376342
     23          1           0       -1.471353   -2.738056   -1.737791
     24          1           0       -3.343711    0.249977    1.769738
     25          1           0        0.315290    0.618638    1.021143
     26          1           0       -0.419668    2.167909    1.484931
     27          1           0       -1.161733    0.649468    1.995049
     28          1           0       -2.423987   -2.951724    1.010237
     29          1           0       -0.791141   -2.353087    0.655517
     30          1           0       -1.853872   -1.451491    1.750261
     31          8           0        4.033918   -2.307022    0.609721
     32          8           0        2.146669   -1.257597    1.185025
     33          7           0        2.510193    0.690419   -0.800788
     34          6           0        3.528936   -0.322136   -0.578862
     35          6           0        4.792597    0.472529   -0.131332
     36          6           0        4.284079    1.916233    0.057453
     37          6           0        2.773098    1.738755    0.190479
     38          6           0        3.134170   -1.319909    0.498749
     39          1           0        3.722053   -0.900152   -1.486070
     40          1           0        5.579347    0.407020   -0.881166
     41          1           0        5.193046    0.066020    0.798364
     42          1           0        4.730770    2.406310    0.922174
     43          1           0        4.502274    2.511754   -0.830413
     44          1           0        2.519178    1.424991    1.213320
     45          1           0        2.209133    2.644210   -0.041656
     46          1           0        1.575606    0.291558   -0.729281
     47          1           0        3.744668   -2.903442    1.315289
 ---------------------------------------------------------------------

 SCF Done:  E(UM062X) =  -959.973239024     A.U. after    1 cycles

 The electronic state is 2-A.
 Alpha  occ. eigenvalues --  -19.66881 -19.62659 -19.62021 -19.61813 -14.84024
 Alpha  occ. eigenvalues --  -14.72425 -10.67715 -10.59257 -10.59233 -10.59193
 Alpha  occ. eigenvalues --  -10.57897 -10.55418 -10.54143 -10.53816 -10.53810
 Alpha  occ. eigenvalues --  -10.53178 -10.52919 -10.52776 -10.52676 -10.52639
 Alpha  occ. eigenvalues --   -1.24372  -1.23487  -1.14936  -1.14813  -1.03150
 Alpha  occ. eigenvalues --   -0.98252  -0.92878  -0.86312  -0.86141  -0.84500
 Alpha  occ. eigenvalues --   -0.82152  -0.79295  -0.78262  -0.78150  -0.74100
 Alpha  occ. eigenvalues --   -0.69203  -0.68755  -0.66689  -0.66028  -0.61697
 Alpha  occ. eigenvalues --   -0.60666  -0.59478  -0.58968  -0.57648  -0.57467
 Alpha  occ. eigenvalues --   -0.56827  -0.55842  -0.53771  -0.53207  -0.52801
 Alpha  occ. eigenvalues --   -0.51364  -0.50019  -0.49883  -0.48547  -0.48347
 Alpha  occ. eigenvalues --   -0.47575  -0.47415  -0.46238  -0.45637  -0.44543
 Alpha  occ. eigenvalues --   -0.44397  -0.44001  -0.43558  -0.43424  -0.43078
 Alpha  occ. eigenvalues --   -0.41624  -0.41380  -0.40774  -0.40457  -0.40170
 Alpha  occ. eigenvalues --   -0.39786  -0.39661  -0.39548  -0.37878  -0.36017
 Alpha  occ. eigenvalues --   -0.34720  -0.33870  -0.29616  -0.26804
 Alpha virt. eigenvalues --    0.04655   0.06731   0.07584   0.08157   0.08714
 Alpha virt. eigenvalues --    0.09451   0.09853   0.10706   0.10855   0.12220
 Alpha virt. eigenvalues --    0.12428   0.13333   0.13651   0.13880   0.15153

  Beta  occ. eigenvalues --  -19.66880 -19.62018 -19.61813 -19.61631 -14.83199
  Beta  occ. eigenvalues --  -14.72422 -10.67715 -10.59287 -10.59261 -10.59194
  Beta  occ. eigenvalues --  -10.57897 -10.55418 -10.54143 -10.53814 -10.53808
  Beta  occ. eigenvalues --  -10.53178 -10.52883 -10.52742 -10.52663 -10.52626
  Beta  occ. eigenvalues --   -1.24370  -1.20544  -1.14933  -1.14810  -1.03142
  Beta  occ. eigenvalues --   -0.97018  -0.92691  -0.86276  -0.85547  -0.84494
  Beta  occ. eigenvalues --   -0.80588  -0.79058  -0.78214  -0.78049  -0.74099
  Beta  occ. eigenvalues --   -0.68942  -0.68225  -0.66682  -0.66017  -0.61263
  Beta  occ. eigenvalues --   -0.60526  -0.59437  -0.58534  -0.57608  -0.56401
  Beta  occ. eigenvalues --   -0.56090  -0.53764  -0.53210  -0.53000  -0.52223
  Beta  occ. eigenvalues --   -0.51038  -0.49923  -0.49679  -0.48508  -0.47695
  Beta  occ. eigenvalues --   -0.47215  -0.46895  -0.46015  -0.45458  -0.44429
  Beta  occ. eigenvalues --   -0.43683  -0.43576  -0.43443  -0.43207  -0.42239
  Beta  occ. eigenvalues --   -0.41529  -0.41214  -0.40532  -0.40180  -0.39896
  Beta  occ. eigenvalues --   -0.39590  -0.39558  -0.38007  -0.37080  -0.35998
  Beta  occ. eigenvalues --   -0.34607  -0.32439  -0.29557
  Beta virt. eigenvalues --   -0.01740   0.04666   0.06803   0.07616   0.08153
  Beta virt. eigenvalues --    0.08715   0.09462   0.09868   0.10771   0.10900
  Beta virt. eigenvalues --    0.12283   0.12472   0.13410   0.13695   0.13920

 Mulliken charges and spin densities:
               1          2
     1  O   -0.459522   0.000080
     2  H    0.279307   0.000035
     3  C   -0.114871  -0.013287
     4  N   -0.076573   0.473434
     5  O   -0.352089   0.480593
     6  C   -0.257355   0.007389
     7  C    0.019233  -0.003450
     8  C   -0.253417   0.006624
     9  C   -0.116282  -0.012726
    10  C   -0.322514   0.005895
    11  C   -0.323999   0.005234
    12  C   -0.332596   0.029442
    13  C   -0.323077   0.030266
    14  H    0.172446  -0.001348
    15  H    0.165014  -0.000486
    16  H    0.173678  -0.001379
    17  H    0.165935  -0.000455
    18  H    0.151674  -0.001362
    19  H    0.150241  -0.000089
    20  H    0.143226  -0.001327
    21  H    0.148605  -0.000117
    22  H    0.149942  -0.001302
    23  H    0.151744  -0.001200
    24  H    0.156857  -0.000526
    25  H    0.145635  -0.001345
    26  H    0.158456   0.002284
    27  H    0.145045  -0.001270
    28  H    0.156004   0.002096
    29  H    0.155298  -0.002420
    30  H    0.143483  -0.000988
    31  O   -0.373678   0.000092
    32  O   -0.383551   0.000142
    33  N   -0.440898   0.001566
    34  C   -0.168444  -0.000262
    35  C   -0.300499   0.000074
    36  C   -0.265310   0.000059
    37  C   -0.202961  -0.000143
    38  C    0.432553   0.000422
    39  H    0.199907  -0.000016
    40  H    0.173227   0.000009
    41  H    0.170171   0.000006
    42  H    0.159402   0.000013
    43  H    0.155699   0.000006
    44  H    0.146524  -0.000026
    45  H    0.161043   0.000012
    46  H    0.237454  -0.000267
    47  H    0.299831   0.000019
 Sum of Mulliken charges =   0.00000   1.00000

 Dipole moment (field-independent basis, Debye):
    X=             -1.3364    Y=             -1.6554    Z=              3.1259  Tot=              3.7812
 Quadrupole moment (field-independent basis, Debye-Ang):
   XX=           -107.9942   YY=           -116.0721   ZZ=           -125.0384
   XY=              8.4482   XZ=              0.7496   YZ=             -2.8811

  Exact polarizability: 247.672  -1.169 236.458 -10.481  -0.018 209.331
 Approx polarizability: 221.870  -4.795 209.318 -10.605   0.511 200.064

                      1                      2                      3
                      A                      A                      A
 Frequencies --     15.3098                25.1911                39.9921
 Red. masses --      5.0685                 4.9573                 4.0664
 Frc consts  --      0.0007                 0.0019                 0.0038

 IR Inten    --      0.2733                 0.6254                 2.6312

                      4                      5                      6
                      A                      A                      A
 Frequencies --     50.1325                61.5691                68.4450
 Red. masses --      4.7779                 5.1186                 4.2382
 Frc consts  --      0.0071                 0.0114                 0.0117

 IR Inten    --      0.4810                 2.1676                 1.0492

                      7                      8                      9
                      A                      A                      A
 Frequencies --     77.6996                91.9954               111.0912
 Red. masses --      4.1826                 4.5457                 3.2694
 Frc consts  --      0.0149                 0.0227                 0.0238

 IR Inten    --      0.2534                 6.6871                 3.9954

                     10                     11                     12
                      A                      A                      A
 Frequencies --    134.6054               176.6044               195.4519
 Red. masses --      2.4818                 2.9119                 1.2529
 Frc consts  --      0.0265                 0.0535                 0.0282

 IR Inten    --      1.9201                 1.2683                 0.1297

                     13                     14                     15
                      A                      A                      A
 Frequencies --    211.8337               216.1930               245.8563
 Red. masses --      3.0280                 2.5675                 1.1119
 Frc consts  --      0.0801                 0.0707                 0.0396

 IR Inten    --      3.4044                 1.1829                 0.5006

                     16                     17                     18
                      A                      A                      A
 Frequencies --    247.8238               265.4518               284.1505
 Red. masses --      2.6572                 1.1903                 1.2593
 Frc consts  --      0.0962                 0.0494                 0.0599

 IR Inten    --      2.6212                 1.2774                12.4866

                     19                     20                     21
                      A                      A                      A
 Frequencies --    286.6391               299.5523               305.1714
 Red. masses --      1.7461                 1.7160                 1.6466
 Frc consts  --      0.0845                 0.0907                 0.0903

 IR Inten    --     20.1428                94.2452                57.9411

                     22                     23                     24
                      A                      A                      A
 Frequencies --    318.9042               322.6446               342.3085
 Red. masses --      2.7218                 2.0455                 2.8668
 Frc consts  --      0.1631                 0.1255                 0.1979

 IR Inten    --      8.8613                 1.3066                 7.2896

                     25                     26                     27
                      A                      A                      A
 Frequencies --    351.3140               386.9850               407.8191
 Red. masses --      3.4697                 2.8813                 3.6785
 Frc consts  --      0.2523                 0.2542                 0.3605

 IR Inten    --      3.2104                 4.0567                22.0798

                     28                     29                     30
                      A                      A                      A
 Frequencies --    413.6411               431.2785               449.3655
 Red. masses --      4.3342                 2.7790                 4.2547
 Frc consts  --      0.4369                 0.3046                 0.5062

 IR Inten    --      1.6442                10.6518                31.8054

                     31                     32                     33
                      A                      A                      A
 Frequencies --    469.8122               493.7256               566.1082
 Red. masses --      3.0338                 2.2057                 2.7918
 Frc consts  --      0.3945                 0.3168                 0.5272

 IR Inten    --      2.7368                 5.0778                 2.6256

                     34                     35                     36
                      A                      A                      A
 Frequencies --    574.4430               589.9680               594.8687
 Red. masses --      1.4910                 3.1115                 2.4910
 Frc consts  --      0.2899                 0.6381                 0.5194

 IR Inten    --    126.4907                 8.3655                16.2391

                     37                     38                     39
                      A                      A                      A
 Frequencies --    599.0715               642.7845               688.9640
 Red. masses --      2.1260                 3.4062                 3.7602
 Frc consts  --      0.4495                 0.8292                 1.0516

 IR Inten    --     11.0353                36.5310                92.7439

                     40                     41                     42
                      A                      A                      A
 Frequencies --    709.9580               758.7428               807.8639
 Red. masses --      3.4792                 2.3943                 2.1270
 Frc consts  --      1.0332                 0.8121                 0.8179

 IR Inten    --     25.7401                39.0797                31.7403

                     43                     44                     45
                      A                      A                      A
 Frequencies --    831.0970               854.7514               876.6638
 Red. masses --      2.5683                 1.9778                 2.5429
 Frc consts  --      1.0452                 0.8513                 1.1515

 IR Inten    --      1.3559                89.3367                 1.5888

                     46                     47                     48
                      A                      A                      A
 Frequencies --    886.5821               900.3802               926.1168
 Red. masses --      1.5840                 1.9762                 2.3153
 Frc consts  --      0.7336                 0.9439                 1.1700

 IR Inten    --      2.2550                88.5455                17.6237

                     49                     50                     51
                      A                      A                      A
 Frequencies --    933.3094               944.5474               951.8374
 Red. masses --      1.9932                 2.4059                 1.5026
 Frc consts  --      1.0230                 1.2647                 0.8021

 IR Inten    --      1.9613                 6.8895                 2.7417

                     52                     53                     54
                      A                      A                      A
 Frequencies --    959.0919               970.4219               977.3781
 Red. masses --      1.4590                 1.6651                 2.0787
 Frc consts  --      0.7907                 0.9239                 1.1699

 IR Inten    --      1.1665                 1.0239                11.7466

                     55                     56                     57
                      A                      A                      A
 Frequencies --    992.4945              1010.8547              1014.3433
 Red. masses --      1.6619                 2.2529                 1.4462
 Frc consts  --      0.9645                 1.3564                 0.8767

 IR Inten    --      4.3085                10.6762                 1.8833

                     58                     59                     60
                      A                      A                      A
 Frequencies --   1021.2977              1061.2067              1074.9191
 Red. masses --      1.3248                 1.5607                 1.6562
 Frc consts  --      0.8141                 1.0356                 1.1275

 IR Inten    --      1.8206                 2.2428                 8.8069

                     61                     62                     63
                      A                      A                      A
 Frequencies --   1081.7922              1104.6704              1112.7218
 Red. masses --      2.1926                 1.8697                 1.8474
 Frc consts  --      1.5118                 1.3442                 1.3477

 IR Inten    --      0.7318                60.7036                 6.1858

                     64                     65                     66
                      A                      A                      A
 Frequencies --   1113.8290              1120.5998              1158.2756
 Red. masses --      2.2365                 1.8456                 2.9353
 Frc consts  --      1.6348                 1.3655                 2.3202

 IR Inten    --     62.9336                 1.8411               275.9322

                     67                     68                     69
                      A                      A                      A
 Frequencies --   1195.5721              1197.8929              1206.4596
 Red. masses --      1.8698                 2.1828                 1.4186
 Frc consts  --      1.5747                 1.8454                 1.2166

 IR Inten    --    174.1174                38.1386                10.9656

                     70                     71                     72
                      A                      A                      A
 Frequencies --   1214.6164              1228.7545              1229.1395
 Red. masses --      2.4878                 1.6706                 2.2225
 Frc consts  --      2.1625                 1.4861                 1.9783

 IR Inten    --     30.4114                23.0703                12.9512

                     73                     74                     75
                      A                      A                      A
 Frequencies --   1237.0232              1255.6854              1269.2175
 Red. masses --      1.4549                 2.0696                 1.7372
 Frc consts  --      1.3117                 1.9226                 1.6488

 IR Inten    --      5.2689                29.5463                29.9590

                     76                     77                     78
                      A                      A                      A
 Frequencies --   1279.3589              1285.2787              1291.6242
 Red. masses --      1.2162                 2.5074                 1.7273
 Frc consts  --      1.1729                 2.4405                 1.6978

 IR Inten    --      2.5274                34.7114                41.0347

                     79                     80                     81
                      A                      A                      A
 Frequencies --   1308.3989              1325.7844              1326.2838
 Red. masses --      1.3482                 1.3679                 1.3816
 Frc consts  --      1.3598                 1.4167                 1.4318

 IR Inten    --      4.6964                 3.8411                10.9368

                     82                     83                     84
                      A                      A                      A
 Frequencies --   1341.2134              1349.1505              1366.3911
 Red. masses --      1.3566                 1.5365                 1.6704
 Frc consts  --      1.4378                 1.6477                 1.8375

 IR Inten    --     20.2345                 9.7693                43.8560

                     85                     86                     87
                      A                      A                      A
 Frequencies --   1376.2845              1393.0430              1402.8532
 Red. masses --      1.4978                 1.2948                 1.3139
 Frc consts  --      1.6716                 1.4804                 1.5235

 IR Inten    --      0.6402                 9.9409                28.2647

                     88                     89                     90
                      A                      A                      A
 Frequencies --   1408.2901              1409.1905              1412.8310
 Red. masses --      1.2801                 1.7654                 1.5991
 Frc consts  --      1.4958                 2.0655                 1.8806

 IR Inten    --     47.9535                31.4121                67.5924

                     91                     92                     93
                      A                      A                      A
 Frequencies --   1418.2939              1457.1520              1470.1185
 Red. masses --      1.3953                 1.5185                 1.0621
 Frc consts  --      1.6537                 1.8997                 1.3525

 IR Inten    --     14.6367                11.6174                 3.6199

                     94                     95                     96
                      A                      A                      A
 Frequencies --   1475.5944              1478.1341              1481.3068
 Red. masses --      1.0916                 1.0810                 2.0849
 Frc consts  --      1.4004                 1.3916                 2.6954

 IR Inten    --      5.8047                 1.1384                 8.6866

                     97                     98                     99
                      A                      A                      A
 Frequencies --   1484.3858              1485.9504              1487.8274
 Red. masses --      1.2939                 1.0874                 1.1091
 Frc consts  --      1.6797                 1.4146                 1.4465

 IR Inten    --      6.9809                 3.7462                 4.3177

                    100                    101                    102
                      A                      A                      A
 Frequencies --   1491.6893              1497.1903              1498.1713
 Red. masses --      1.0988                 1.1148                 1.2415
 Frc consts  --      1.4406                 1.4723                 1.6419

 IR Inten    --      5.8373                16.2680                 2.9529

                    103                    104                    105
                      A                      A                      A
 Frequencies --   1501.2359              1504.2860              1507.9855
 Red. masses --      1.0962                 1.0888                 1.1630
 Frc consts  --      1.4556                 1.4517                 1.5583

 IR Inten    --      9.4844                 3.1734                16.5809

                    106                    107                    108
                      A                      A                      A
 Frequencies --   1518.3633              1523.6126              1839.3215
 Red. masses --      1.1231                 1.1066                10.7683
 Frc consts  --      1.5256                 1.5135                21.4641

 IR Inten    --     37.5253                 2.2350               555.1396

                    109                    110                    111
                      A                      A                      A
 Frequencies --   3009.0127              3044.9273              3055.5867
 Red. masses --      1.0700                 1.0805                 1.0601
 Frc consts  --      5.7079                 5.9022                 5.8317

 IR Inten    --     78.3782                15.8080                21.5293

                    112                    113                    114
                      A                      A                      A
 Frequencies --   3063.0714              3068.1612              3070.5418
 Red. masses --      1.0621                 1.0359                 1.0363
 Frc consts  --      5.8712                 5.7455                 5.7567

 IR Inten    --     43.4279                10.6647                45.6737

                    115                    116                    117
                      A                      A                      A
 Frequencies --   3072.8172              3074.8470              3087.8939
 Red. masses --      1.0373                 1.0372                 1.0848
 Frc consts  --      5.7710                 5.7776                 6.0945

 IR Inten    --     42.9054                 6.0842                26.1268

                    118                    119                    120
                      A                      A                      A
 Frequencies --   3092.5745              3102.2220              3105.3727
 Red. masses --      1.0629                 1.0653                 1.1046
 Frc consts  --      5.9895                 6.0402                 6.2758

 IR Inten    --     27.2916                43.3512                31.6733

                    121                    122                    123
                      A                      A                      A
 Frequencies --   3113.1895              3116.3851              3142.9922
 Red. masses --      1.0913                 1.1029                 1.1038
 Frc consts  --      6.2319                 6.3107                 6.4246

 IR Inten    --     44.0041                30.6881                15.6308

                    124                    125                    126
                      A                      A                      A
 Frequencies --   3143.1866              3145.5769              3146.4649
 Red. masses --      1.1024                 1.1034                 1.1028
 Frc consts  --      6.4172                 6.4326                 6.4326

 IR Inten    --     16.1436                26.8662                53.4787

                    127                    128                    129
                      A                      A                      A
 Frequencies --   3150.2084              3156.0701              3156.5030
 Red. masses --      1.1020                 1.1032                 1.1064
 Frc consts  --      6.4434                 6.4744                 6.4949

 IR Inten    --     14.7786                 3.5280                46.2753

                    130                    131                    132
                      A                      A                      A
 Frequencies --   3165.9501              3170.5510              3174.0829
 Red. masses --      1.1016                 1.1021                 1.1006
 Frc consts  --      6.5054                 6.5272                 6.5333

 IR Inten    --     28.0382                19.7701                 8.5896

                    133                    134                    135
                      A                      A                      A
 Frequencies --   3521.2272              3809.7651              3877.9128
 Red. masses --      1.0756                 1.0650                 1.0665
 Frc consts  --      7.8572                 9.1071                 9.4497

 IR Inten    --    260.0044               140.1043                72.4739

 - Thermochemistry -
 -------------------
 Temperature   298.150 Kelvin.  Pressure   1.00000 Atm.
 Atom     1 has atomic number  8 and mass  15.99491

 Molecular mass:   287.19708 amu.
 Principal axes and moments of inertia in atomic units:
                           1         2         3
     Eigenvalues --  2931.91925********************
           X            0.99985   0.01755  -0.00024
           Y           -0.01754   0.99983   0.00571
           Z            0.00034  -0.00571   0.99998
 This molecule is an asymmetric top.
 Rotational symmetry number  1.
 Warning -- assumption of classical behavior for rotation
           may cause significant error
 Rotational temperatures (Kelvin)      0.02954     0.00847     0.00745
 Rotational constants (GHZ):           0.61555     0.17640     0.15531
 Zero-point vibrational energy    1091464.2 (Joules/Mol)
                                  260.86620 (Kcal/Mol)
 Warning -- explicit consideration of  37 degrees of freedom as
           vibrations may cause significant error
 Vibrational temperatures:     22.03    36.24    57.54    72.13    88.58
          (Kelvin)             98.48   111.79   132.36   159.84   193.67
                              254.09   281.21   304.78   311.05   353.73
                              356.56   381.93   408.83   412.41   430.99
                              439.07   458.83   464.21   492.51   505.46
                              556.79   586.76   595.14   620.51   646.54
                              675.95   710.36   814.50   826.50   848.83
                              855.88   861.93   924.82   991.27  1021.47
                             1091.66  1162.34  1195.76  1229.80  1261.32
                             1275.59  1295.45  1332.48  1342.82  1358.99
                             1369.48  1379.92  1396.22  1406.23  1427.98
                             1454.39  1459.41  1469.42  1526.84  1546.57
                             1556.46  1589.37  1600.96  1602.55  1612.29
                             1666.50  1720.16  1723.50  1735.83  1747.56
                             1767.90  1768.46  1779.80  1806.65  1826.12
                             1840.71  1849.23  1858.36  1882.49  1907.51
                             1908.23  1929.71  1941.13  1965.93  1980.17
                             2004.28  2018.39  2026.22  2027.51  2032.75
                             2040.61  2096.52  2115.17  2123.05  2126.71
                             2131.27  2135.70  2137.95  2140.65  2146.21
                             2154.12  2155.53  2159.94  2164.33  2169.65
                             2184.59  2192.14  2646.37  4329.30  4380.97
                             4396.31  4407.08  4414.40  4417.82  4421.10
                             4424.02  4442.79  4449.52  4463.41  4467.94
                             4479.19  4483.78  4522.06  4522.34  4525.78
                             4527.06  4532.45  4540.88  4541.50  4555.10
                             4561.72  4566.80  5066.26  5481.40  5579.45

 Zero-point correction=                           0.415717 (Hartree/Particle)
 Thermal correction to Energy=                    0.438115
 Thermal correction to Enthalpy=                  0.439059
 Thermal correction to Gibbs Free Energy=         0.362224
 Sum of electronic and zero-point Energies=           -959.557522
 Sum of electronic and thermal Energies=              -959.535124
 Sum of electronic and thermal Enthalpies=            -959.534180
 Sum of electronic and thermal Free Energies=         -959.611015

                     E (Thermal)             CV                S
                      KCal/Mol        Cal/Mol-Kelvin    Cal/Mol-Kelvin
 Total                  274.921             84.824            161.713
 Electronic               0.000              0.000              1.377
 Translational            0.889              2.981             42.863
 Rotational               0.889              2.981             34.210
 Vibrational            273.144             78.862             83.263
 Vibration     1          0.593              1.986              7.165
 Vibration     2          0.593              1.985              6.176
 Vibration     3          0.594              1.981              5.259
 Vibration     4          0.595              1.978              4.812
 Vibration     5          0.597              1.973              4.406
 Vibration     6          0.598              1.969              4.198
 Vibration     7          0.599              1.964              3.948
 Vibration     8          0.602              1.955              3.617
 Vibration     9          0.607              1.940              3.250
 Vibration    10          0.613              1.919              2.879
 Vibration    11          0.628              1.871              2.364
 Vibration    12          0.636              1.846              2.175
 Vibration    13          0.643              1.823              2.028
 Vibration    14          0.645              1.816              1.991
 Vibration    15          0.660              1.770              1.760
 Vibration    16          0.661              1.766              1.746
 Vibration    17          0.671              1.736              1.626
 Vibration    18          0.683              1.703              1.509
 Vibration    19          0.684              1.699              1.494
 Vibration    20          0.692              1.675              1.419
 Vibration    21          0.696              1.664              1.388
 Vibration    22          0.705              1.637              1.316
 Vibration    23          0.708              1.630              1.297
 Vibration    24          0.721              1.591              1.201
 Vibration    25          0.728              1.573              1.160
 Vibration    26          0.755              1.498              1.012
 Vibration    27          0.772              1.453              0.934
 Vibration    28          0.777              1.441              0.914
 Vibration    29          0.792              1.402              0.854
 Vibration    30          0.808              1.362              0.798
 Vibration    31          0.827              1.317              0.738
 Vibration    32          0.849              1.264              0.674
 Vibration    33          0.922              1.105              0.512
 Vibration    34          0.931              1.087              0.496
 Vibration    35          0.947              1.053              0.467
 Vibration    36          0.953              1.043              0.459
 Vibration    37          0.957              1.034              0.451

                           ! Non-Optimized Parameters !
 Normal termination of Gaussian 16 at Tue Dec 22 15:32:19 2020.
