 Gaussian 16, Revision A.03,
 Gaussian 16:  ES64L-G16RevA.03 25-Dec-2016

 -----------------------------------------------------
 # opt freq m062x/6-311g(d,p) scrf=(solvent=water,pcm)
 -----------------------------------------------------

 -------------------
 Title Card Required
 -------------------
 Symbolic Z-matrix:
 Charge =  0 Multiplicity = 2

 SCF Done:  E(UM062X) =  -959.949689171     A.U. after   15 cycles
 SCF Done:  E(UM062X) =  -959.958838475     A.U. after   14 cycles
 SCF Done:  E(UM062X) =  -959.963848580     A.U. after   15 cycles
 SCF Done:  E(UM062X) =  -959.967476205     A.U. after   14 cycles
 SCF Done:  E(UM062X) =  -959.967239199     A.U. after   14 cycles
 SCF Done:  E(UM062X) =  -959.964815248     A.U. after   15 cycles
 SCF Done:  E(UM062X) =  -959.966653788     A.U. after   15 cycles
 SCF Done:  E(UM062X) =  -959.967774535     A.U. after   13 cycles
 SCF Done:  E(UM062X) =  -959.969138892     A.U. after   14 cycles
 SCF Done:  E(UM062X) =  -959.969705070     A.U. after   14 cycles
 SCF Done:  E(UM062X) =  -959.971246753     A.U. after   13 cycles
 SCF Done:  E(UM062X) =  -959.971842994     A.U. after   13 cycles
 SCF Done:  E(UM062X) =  -959.971858403     A.U. after   13 cycles
 SCF Done:  E(UM062X) =  -959.971855864     A.U. after   12 cycles
 SCF Done:  E(UM062X) =  -959.971862043     A.U. after   12 cycles
 SCF Done:  E(UM062X) =  -959.971862412     A.U. after   10 cycles
 SCF Done:  E(UM062X) =  -959.971862987     A.U. after   10 cycles
 SCF Done:  E(UM062X) =  -959.971863223     A.U. after   10 cycles
 SCF Done:  E(UM062X) =  -959.971863305     A.U. after    7 cycles
 Optimization completed.
    -- Stationary point found.
 Normal termination of Gaussian 16 at Fri Dec 25 15:49:20 2020.

 ----------------------------------------------------------------------
 #N Geom=AllCheck Guess=TCheck SCRF=Check GenChk UM062X/6-311G(d,p) Fre
 q
 ----------------------------------------------------------------------

 Structure from the checkpoint file:  "Tem_Prop_CA-H.chk"
 -------------------
 Title Card Required
 -------------------
 Charge =  0 Multiplicity = 2

                         Standard orientation:
 ---------------------------------------------------------------------
 Center     Atomic      Atomic             Coordinates (Angstroms)
 Number     Number       Type             X           Y           Z
 ---------------------------------------------------------------------
      1          8           0        5.127952   -1.316705    0.418245
      2          1           0        5.819106   -0.731212    0.741991
      3          6           0        2.506836    1.346631   -0.274273
      4          7           0        1.394453    0.365272   -0.449223
      5          8           0        0.252018    0.859876   -0.706895
      6          6           0        3.852722    0.615883   -0.307688
      7          6           0        3.883737   -0.641919    0.547812
      8          6           0        2.815698   -1.596698    0.051414
      9          6           0        1.400373   -1.016671    0.117230
     10          6           0        0.459775   -1.866436   -0.737519
     11          6           0        2.436231    2.330333   -1.442630
     12          6           0        0.864364   -0.978790    1.555824
     13          6           0        2.305632    2.109225    1.043406
     14          1           0        4.628189    1.318070    0.014617
     15          1           0        4.083682    0.318594   -1.336237
     16          1           0        2.838873   -2.520595    0.635049
     17          1           0        3.057573   -1.853893   -0.985723
     18          1           0        0.550532   -2.910701   -0.429603
     19          1           0        0.725141   -1.787580   -1.794084
     20          1           0       -0.573399   -1.550556   -0.596809
     21          1           0        2.464714    1.794093   -2.393275
     22          1           0        3.295131    3.002733   -1.392965
     23          1           0        1.521688    2.919668   -1.397402
     24          1           0        3.710632   -0.393056    1.601861
     25          1           0       -0.112812   -0.491913    1.567211
     26          1           0        0.739513   -2.002586    1.916039
     27          1           0        1.532369   -0.457065    2.241293
     28          1           0        3.002266    2.949443    1.083036
     29          1           0        1.286783    2.498323    1.086350
     30          1           0        2.480401    1.484645    1.919576
     31          8           0       -3.680869    2.320246    0.051874
     32          8           0       -4.660677    0.871888    1.443116
     33          7           0       -2.876386   -1.166388    0.769608
     34          6           0       -2.749219    0.143176    0.143343
     35          6           0       -2.878806   -0.129703   -1.380144
     36          6           0       -3.367319   -1.591773   -1.471415
     37          6           0       -3.844912   -1.903806   -0.053545
     38          6           0       -3.809251    1.116620    0.626973
     39          1           0       -1.777291    0.596490    0.357769
     40          1           0       -1.909576    0.011982   -1.857484
     41          1           0       -3.584193    0.562713   -1.840310
     42          1           0       -4.155632   -1.722205   -2.212444
     43          1           0       -2.539791   -2.252908   -1.734871
     44          1           0       -4.871032   -1.537040    0.089158
     45          1           0       -3.820700   -2.968255    0.183267
     46          1           0       -3.208403   -1.066925    1.724249
     47          1           0       -4.372793    2.898682    0.403603
 ---------------------------------------------------------------------

 SCF Done:  E(UM062X) =  -959.971863305     A.U. after    1 cycles

 The electronic state is 2-A.
 Alpha  occ. eigenvalues --  -19.66809 -19.62407 -19.61803 -19.61784 -14.83822
 Alpha  occ. eigenvalues --  -14.73038 -10.67611 -10.59177 -10.59145 -10.59052
 Alpha  occ. eigenvalues --  -10.57356 -10.55479 -10.53786 -10.53718 -10.53671
 Alpha  occ. eigenvalues --  -10.53120 -10.52961 -10.52792 -10.52606 -10.52271
 Alpha  occ. eigenvalues --   -1.24287  -1.23245  -1.14902  -1.14733  -1.03250
 Alpha  occ. eigenvalues --   -0.98122  -0.92788  -0.86223  -0.86057  -0.84361
 Alpha  occ. eigenvalues --   -0.82080  -0.79141  -0.78228  -0.77988  -0.74045
 Alpha  occ. eigenvalues --   -0.69085  -0.68642  -0.66529  -0.65896  -0.61626
 Alpha  occ. eigenvalues --   -0.60423  -0.59666  -0.58781  -0.57904  -0.57036
 Alpha  occ. eigenvalues --   -0.56649  -0.55659  -0.53692  -0.52915  -0.52729
 Alpha  occ. eigenvalues --   -0.51337  -0.49964  -0.49767  -0.48524  -0.48069
 Alpha  occ. eigenvalues --   -0.47531  -0.47308  -0.46103  -0.45594  -0.44474
 Alpha  occ. eigenvalues --   -0.44272  -0.43811  -0.43488  -0.43292  -0.43019
 Alpha  occ. eigenvalues --   -0.41458  -0.41319  -0.40678  -0.40369  -0.39930
 Alpha  occ. eigenvalues --   -0.39853  -0.39649  -0.39299  -0.37813  -0.35860
 Alpha  occ. eigenvalues --   -0.34671  -0.33662  -0.29856  -0.26546
 Alpha virt. eigenvalues --    0.05005   0.06689   0.07566   0.08187   0.08808
 Alpha virt. eigenvalues --    0.09372   0.09941   0.10447   0.10685   0.11341
 Alpha virt. eigenvalues --    0.12470   0.13154   0.13436   0.15101   0.15465

  Beta  occ. eigenvalues --  -19.66809 -19.61802 -19.61783 -19.61380 -14.83002
  Beta  occ. eigenvalues --  -14.73037 -10.67610 -10.59207 -10.59147 -10.59082
  Beta  occ. eigenvalues --  -10.57351 -10.55479 -10.53783 -10.53715 -10.53670
  Beta  occ. eigenvalues --  -10.53120 -10.52925 -10.52756 -10.52593 -10.52259
  Beta  occ. eigenvalues --   -1.24287  -1.20304  -1.14898  -1.14732  -1.03246
  Beta  occ. eigenvalues --   -0.96902  -0.92603  -0.86195  -0.85477  -0.84352
  Beta  occ. eigenvalues --   -0.80482  -0.78922  -0.78178  -0.77887  -0.74041
  Beta  occ. eigenvalues --   -0.68842  -0.68101  -0.66525  -0.65886  -0.61182
  Beta  occ. eigenvalues --   -0.60401  -0.59411  -0.58464  -0.57753  -0.56031
  Beta  occ. eigenvalues --   -0.55949  -0.53684  -0.53040  -0.52852  -0.52019
  Beta  occ. eigenvalues --   -0.51046  -0.49872  -0.49549  -0.48357  -0.47710
  Beta  occ. eigenvalues --   -0.47022  -0.46796  -0.45861  -0.45346  -0.44323
  Beta  occ. eigenvalues --   -0.43626  -0.43430  -0.43283  -0.43194  -0.42157
  Beta  occ. eigenvalues --   -0.41360  -0.41133  -0.40342  -0.40124  -0.39835
  Beta  occ. eigenvalues --   -0.39503  -0.39459  -0.37955  -0.36942  -0.35821
  Beta  occ. eigenvalues --   -0.34581  -0.32201  -0.29804
  Beta virt. eigenvalues --   -0.01629   0.05046   0.06717   0.07602   0.08181
  Beta virt. eigenvalues --    0.08800   0.09366   0.09960   0.10537   0.10691
  Beta virt. eigenvalues --    0.11333   0.12465   0.13175   0.13477   0.15094

 Mulliken charges and spin densities:
               1          2
     1  O   -0.459649   0.000106
     2  H    0.278922   0.000046
     3  C   -0.112237  -0.013280
     4  N   -0.084616   0.469832
     5  O   -0.342911   0.482575
     6  C   -0.258220   0.007533
     7  C    0.018941  -0.003615
     8  C   -0.254514   0.007284
     9  C   -0.105301  -0.014031
    10  C   -0.324277   0.005959
    11  C   -0.324012   0.005357
    12  C   -0.323235   0.029028
    13  C   -0.322976   0.030594
    14  H    0.172006  -0.001339
    15  H    0.164582  -0.000497
    16  H    0.172731  -0.001261
    17  H    0.165540  -0.000398
    18  H    0.148935  -0.001289
    19  H    0.147076  -0.000195
    20  H    0.145882  -0.000955
    21  H    0.148289  -0.000190
    22  H    0.149555  -0.001329
    23  H    0.150938  -0.001191
    24  H    0.156404  -0.000542
    25  H    0.157944  -0.002315
    26  H    0.154338   0.001925
    27  H    0.142073  -0.001134
    28  H    0.156143   0.002001
    29  H    0.157525  -0.003048
    30  H    0.143419  -0.001096
    31  O   -0.371139   0.000008
    32  O   -0.406359   0.000263
    33  N   -0.425594   0.000027
    34  C   -0.203038   0.003757
    35  C   -0.303041   0.001322
    36  C   -0.296902   0.000126
    37  C   -0.167389   0.000120
    38  C    0.439790   0.000005
    39  H    0.214568   0.000319
    40  H    0.177137  -0.000518
    41  H    0.171304   0.000031
    42  H    0.162947   0.000004
    43  H    0.161966   0.000046
    44  H    0.142543  -0.000010
    45  H    0.153095  -0.000041
    46  H    0.231074   0.000008
    47  H    0.299745   0.000000
 Sum of Mulliken charges =   0.00000   1.00000

 Dipole moment (field-independent basis, Debye):
    X=              3.3762    Y=              1.7241    Z=              0.6259  Tot=              3.8422
 Quadrupole moment (field-independent basis, Debye-Ang):
   XX=           -114.9349   YY=           -119.0042   ZZ=           -123.9379
   XY=              7.8065   XZ=             11.5195   YZ=              2.5211

  Exact polarizability: 241.919   1.636 236.882  -2.957  -3.031 215.747
 Approx polarizability: 217.779  -0.403 211.366  -3.636  -4.096 202.815

                      1                      2                      3
                      A                      A                      A
 Frequencies --     25.8840                26.7570                38.4405
 Red. masses --      4.4743                 5.0545                 5.1551
 Frc consts  --      0.0018                 0.0021                 0.0045

 IR Inten    --      0.4463                 0.8972                 2.2418

                      4                      5                      6
                      A                      A                      A
 Frequencies --     43.9952                59.7595                68.9328
 Red. masses --      5.0469                 8.0055                 5.0917
 Frc consts  --      0.0058                 0.0168                 0.0143

 IR Inten    --      0.5805                 1.1345                 0.1245

                      7                      8                      9
                      A                      A                      A
 Frequencies --     86.4755                99.9822               109.2260
 Red. masses --      4.0968                 3.9767                 2.4914
 Frc consts  --      0.0181                 0.0234                 0.0175

 IR Inten    --      7.2011                 0.4299                 2.4700

                     10                     11                     12
                      A                      A                      A
 Frequencies --    130.3226               170.1076               190.1981
 Red. masses --      2.5240                 3.2074                 1.0760
 Frc consts  --      0.0253                 0.0547                 0.0229

 IR Inten    --      1.2743                 1.0079                 0.1137

                     13                     14                     15
                      A                      A                      A
 Frequencies --    206.6738               210.0172               244.0213
 Red. masses --      2.6730                 3.1298                 1.1263
 Frc consts  --      0.0673                 0.0813                 0.0395

 IR Inten    --      3.4902                 0.8442                 0.2525

                     16                     17                     18
                      A                      A                      A
 Frequencies --    252.1400               264.5820               272.6880
 Red. masses --      2.4329                 1.3239                 1.0935
 Frc consts  --      0.0911                 0.0546                 0.0479

 IR Inten    --      1.0449                75.0992                50.5409

                     19                     20                     21
                      A                      A                      A
 Frequencies --    292.3870               293.8091               301.1716
 Red. masses --      1.8621                 1.3583                 2.2616
 Frc consts  --      0.0938                 0.0691                 0.1209

 IR Inten    --     53.0000                11.3282                 1.3033

                     22                     23                     24
                      A                      A                      A
 Frequencies --    313.9337               325.9414               339.9745
 Red. masses --      2.8558                 1.9475                 3.1486
 Frc consts  --      0.1658                 0.1219                 0.2144

 IR Inten    --      1.2120                 3.3734                14.3178

                     25                     26                     27
                      A                      A                      A
 Frequencies --    343.0371               384.9257               402.1921
 Red. masses --      3.1265                 2.8298                 3.8208
 Frc consts  --      0.2168                 0.2470                 0.3641

 IR Inten    --      2.9892                 5.4700                22.1550

                     28                     29                     30
                      A                      A                      A
 Frequencies --    412.6568               428.2818               449.6078
 Red. masses --      4.3795                 2.7674                 4.1329
 Frc consts  --      0.4394                 0.2991                 0.4922

 IR Inten    --      3.9630                11.0931                33.5036

                     31                     32                     33
                      A                      A                      A
 Frequencies --    471.0808               494.2285               560.4576
 Red. masses --      2.9928                 2.1704                 1.6108
 Frc consts  --      0.3913                 0.3123                 0.2981

 IR Inten    --      1.7670                 3.4919               119.4866

                     34                     35                     36
                      A                      A                      A
 Frequencies --    565.8418               585.6740               588.9940
 Red. masses --      2.8192                 1.6859                 3.1982
 Frc consts  --      0.5318                 0.3407                 0.6537

 IR Inten    --      5.5853                 9.2324                 5.6181

                     37                     38                     39
                      A                      A                      A
 Frequencies --    591.4688               645.1823               679.0210
 Red. masses --      3.5550                 3.1560                 3.6289
 Frc consts  --      0.7327                 0.7740                 0.9858

 IR Inten    --     17.4625                34.1423               104.6575

                     40                     41                     42
                      A                      A                      A
 Frequencies --    709.3311               758.0162               807.6171
 Red. masses --      3.4975                 2.3001                 1.9884
 Frc consts  --      1.0368                 0.7787                 0.7641

 IR Inten    --     28.8658                49.9505                23.9191

                     43                     44                     45
                      A                      A                      A
 Frequencies --    830.8532               846.5375               876.6470
 Red. masses --      2.5304                 2.1410                 2.5422
 Frc consts  --      1.0292                 0.9040                 1.1511

 IR Inten    --      0.9951                67.9561                 1.3093

                     46                     47                     48
                      A                      A                      A
 Frequencies --    884.8890               901.7160               926.6487
 Red. masses --      1.5884                 2.0316                 2.3114
 Frc consts  --      0.7328                 0.9732                 1.1694

 IR Inten    --      2.0708                68.0141                22.2088

                     49                     50                     51
                      A                      A                      A
 Frequencies --    932.4357               944.2636               951.9359
 Red. masses --      2.2259                 2.2299                 1.4940
 Frc consts  --      1.1402                 1.1714                 0.7976

 IR Inten    --      1.4068                 6.5923                 2.3238

                     52                     53                     54
                      A                      A                      A
 Frequencies --    960.7038               970.6404               985.4242
 Red. masses --      1.4797                 1.6594                 2.0508
 Frc consts  --      0.8047                 0.9211                 1.1733

 IR Inten    --      2.2527                 2.3201                20.5142

                     55                     56                     57
                      A                      A                      A
 Frequencies --    990.0706              1010.2720              1014.2703
 Red. masses --      1.6623                 2.3678                 1.4089
 Frc consts  --      0.9600                 1.4239                 0.8540

 IR Inten    --      3.5704                11.7127                 2.2286

                     58                     59                     60
                      A                      A                      A
 Frequencies --   1018.8684              1059.6302              1079.8042
 Red. masses --      1.3471                 1.5793                 2.2604
 Frc consts  --      0.8239                 1.0448                 1.5528

 IR Inten    --      1.7767                 2.6893                 2.0916

                     61                     62                     63
                      A                      A                      A
 Frequencies --   1086.2556              1103.9444              1112.2856
 Red. masses --      1.6685                 1.8066                 2.3942
 Frc consts  --      1.1600                 1.2972                 1.7452

 IR Inten    --      9.7699                54.4981                77.0719

                     64                     65                     66
                      A                      A                      A
 Frequencies --   1113.3712              1120.9685              1159.0249
 Red. masses --      1.8207                 1.8263                 2.9168
 Frc consts  --      1.3297                 1.3521                 2.3086

 IR Inten    --      0.5737                 1.6481               214.0041

                     67                     68                     69
                      A                      A                      A
 Frequencies --   1195.2459              1197.4041              1208.0577
 Red. masses --      1.8945                 2.0722                 1.3494
 Frc consts  --      1.5947                 1.7505                 1.1603

 IR Inten    --    200.5266                76.6742                 9.1804

                     70                     71                     72
                      A                      A                      A
 Frequencies --   1215.9408              1227.5298              1227.8493
 Red. masses --      2.4986                 2.4678                 1.5829
 Frc consts  --      2.1766                 2.1909                 1.4061

 IR Inten    --     24.6609                24.1781                18.2047

                     73                     74                     75
                      A                      A                      A
 Frequencies --   1245.3083              1254.6419              1268.6066
 Red. masses --      1.3883                 2.0624                 1.7409
 Frc consts  --      1.2685                 1.9128                 1.6508

 IR Inten    --      1.1702                38.1167                25.1868

                     76                     77                     78
                      A                      A                      A
 Frequencies --   1273.1197              1285.3426              1292.0265
 Red. masses --      1.2231                 2.3858                 1.7705
 Frc consts  --      1.1681                 2.3223                 1.7413

 IR Inten    --      4.0686                34.4228                37.9629

                     79                     80                     81
                      A                      A                      A
 Frequencies --   1310.4718              1324.7340              1331.2768
 Red. masses --      1.3459                 1.3591                 1.4021
 Frc consts  --      1.3618                 1.4053                 1.4641

 IR Inten    --      3.9402                 1.9642                12.9941

                     82                     83                     84
                      A                      A                      A
 Frequencies --   1339.7652              1347.4541              1366.6077
 Red. masses --      1.3499                 1.5620                 1.6745
 Frc consts  --      1.4276                 1.6709                 1.8425

 IR Inten    --     32.4837                 7.7879                47.9446

                     85                     86                     87
                      A                      A                      A
 Frequencies --   1374.5185              1392.0662              1398.9655
 Red. masses --      1.5328                 1.2949                 1.3391
 Frc consts  --      1.7062                 1.4785                 1.5441

 IR Inten    --      2.3778                 1.9103                41.9441

                     88                     89                     90
                      A                      A                      A
 Frequencies --   1408.2474              1408.8184              1413.7350
 Red. masses --      1.4797                 1.2419                 1.6607
 Frc consts  --      1.7290                 1.4522                 1.9556

 IR Inten    --     29.5808                28.5156                98.0494

                     91                     92                     93
                      A                      A                      A
 Frequencies --   1418.1500              1454.5749              1456.9673
 Red. masses --      1.4577                 1.5313                 1.5155
 Frc consts  --      1.7273                 1.9089                 1.8955

 IR Inten    --      7.7405                10.6092                15.7996

                     94                     95                     96
                      A                      A                      A
 Frequencies --   1470.5878              1473.8168              1478.8825
 Red. masses --      1.0572                 1.0701                 1.0539
 Frc consts  --      1.3470                 1.3695                 1.3580

 IR Inten    --      2.7257                 0.6333                 5.0393

                     97                     98                     99
                      A                      A                      A
 Frequencies --   1480.7580              1483.6863              1487.0193
 Red. masses --      2.0289                 1.1281                 1.2841
 Frc consts  --      2.6211                 1.4631                 1.6730

 IR Inten    --      1.7817                 2.4487                 4.8896

                    100                    101                    102
                      A                      A                      A
 Frequencies --   1488.1911              1493.2080              1496.5613
 Red. masses --      1.1225                 1.0980                 1.1244
 Frc consts  --      1.4647                 1.4425                 1.4838

 IR Inten    --      7.7448                 5.1013                13.3984

                    103                    104                    105
                      A                      A                      A
 Frequencies --   1500.6023              1502.2182              1510.7699
 Red. masses --      1.0966                 1.0793                 1.0960
 Frc consts  --      1.4549                 1.4350                 1.4738

 IR Inten    --      8.7644                 9.3464                25.7058

                    106                    107                    108
                      A                      A                      A
 Frequencies --   1513.9404              1524.7472              1838.8337
 Red. masses --      1.1541                 1.1054                10.7928
 Frc consts  --      1.5585                 1.5141                21.5016

 IR Inten    --      8.5810                 2.4713               517.5393

                    109                    110                    111
                      A                      A                      A
 Frequencies --   3014.1831              3042.6745              3053.8031
 Red. masses --      1.0705                 1.0810                 1.0601
 Frc consts  --      5.7302                 5.8964                 5.8247

 IR Inten    --     87.3372                16.9245                21.3322

                    112                    113                    114
                      A                      A                      A
 Frequencies --   3060.9025              3066.4797              3069.7220
 Red. masses --      1.0623                 1.0369                 1.0358
 Frc consts  --      5.8641                 5.7448                 5.7506

 IR Inten    --     43.0863                37.9901                21.0257

                    115                    116                    117
                      A                      A                      A
 Frequencies --   3071.3996              3074.3660              3090.8879
 Red. masses --      1.0364                 1.0372                 1.0721
 Frc consts  --      5.7602                 5.7758                 6.0347

 IR Inten    --     38.8593                11.0505                48.4563

                    118                    119                    120
                      A                      A                      A
 Frequencies --   3091.9974              3102.9655              3103.5035
 Red. masses --      1.0747                 1.0625                 1.1049
 Frc consts  --      6.0536                 6.0275                 6.2699

 IR Inten    --      3.4240                29.2374                33.6730

                    121                    122                    123
                      A                      A                      A
 Frequencies --   3116.4736              3120.1473              3140.0190
 Red. masses --      1.1021                 1.0927                 1.1032
 Frc consts  --      6.3067                 6.2678                 6.4087

 IR Inten    --     29.9695                49.6251                21.0477

                    124                    125                    126
                      A                      A                      A
 Frequencies --   3141.1141              3144.1559              3145.3269
 Red. masses --      1.1046                 1.1024                 1.1029
 Frc consts  --      6.4212                 6.4207                 6.4285

 IR Inten    --     17.4016                40.3848                20.1988

                    127                    128                    129
                      A                      A                      A
 Frequencies --   3148.1658              3156.4941              3157.0572
 Red. masses --      1.1028                 1.1064                 1.1035
 Frc consts  --      6.4395                 6.4948                 6.4802

 IR Inten    --     35.9545                31.9557                13.2666

                    130                    131                    132
                      A                      A                      A
 Frequencies --   3168.6091              3170.2597              3174.5461
 Red. masses --      1.1009                 1.1020                 1.1008
 Frc consts  --      6.5124                 6.5257                 6.5361

 IR Inten    --     28.0749                24.2944                 3.8039

                    133                    134                    135
                      A                      A                      A
 Frequencies --   3558.4597              3810.2890              3876.3888
 Red. masses --      1.0741                 1.0649                 1.0666
 Frc consts  --      8.0137                 9.1094                 9.4427

 IR Inten    --     16.3843               143.0565                71.6374

 - Thermochemistry -
 -------------------
 Temperature   298.150 Kelvin.  Pressure   1.00000 Atm.
 Atom     1 has atomic number  8 and mass  15.99491

 Molecular mass:   287.19708 amu.
 Principal axes and moments of inertia in atomic units:
                           1         2         3
     Eigenvalues --  2985.80727********************
           X            0.99982   0.01752   0.00731
           Y           -0.01753   0.99985   0.00125
           Z           -0.00729  -0.00138   0.99997
 This molecule is an asymmetric top.
 Rotational symmetry number  1.
 Warning -- assumption of classical behavior for rotation
           may cause significant error
 Rotational temperatures (Kelvin)      0.02901     0.00807     0.00723
 Rotational constants (GHZ):           0.60444     0.16808     0.15061
 Zero-point vibrational energy    1090863.5 (Joules/Mol)
                                  260.72263 (Kcal/Mol)
 Warning -- explicit consideration of  37 degrees of freedom as
           vibrations may cause significant error
 Vibrational temperatures:     37.24    38.50    55.31    63.30    85.98
          (Kelvin)             99.18   124.42   143.85   157.15   187.51
                              244.75   273.65   297.36   302.17   351.09
                              362.77   380.67   392.34   420.68   422.73
                              433.32   451.68   468.96   489.15   493.55
                              553.82   578.66   593.72   616.20   646.89
                              677.78   711.08   806.37   814.12   842.65
                              847.43   850.99   928.27   976.96  1020.57
                             1090.62  1161.98  1195.41  1217.98  1261.30
                             1273.16  1297.37  1333.24  1341.57  1358.58
                             1369.62  1382.24  1396.53  1417.81  1424.49
                             1453.56  1459.31  1465.92  1524.57  1553.60
                             1562.88  1588.33  1600.33  1601.89  1612.82
                             1667.58  1719.69  1722.80  1738.13  1749.47
                             1766.14  1766.60  1791.72  1805.15  1825.24
                             1831.74  1849.32  1858.94  1885.48  1906.00
                             1915.41  1927.62  1938.69  1966.24  1977.63
                             2002.87  2012.80  2026.15  2026.98  2034.05
                             2040.40  2092.81  2096.25  2115.85  2120.49
                             2127.78  2130.48  2134.69  2139.49  2141.18
                             2148.39  2153.22  2159.03  2161.36  2173.66
                             2178.22  2193.77  2645.67  4336.74  4377.73
                             4393.74  4403.96  4411.98  4416.65  4419.06
                             4423.33  4447.10  4448.69  4464.48  4465.25
                             4483.91  4489.20  4517.79  4519.36  4523.74
                             4525.42  4529.51  4541.49  4542.30  4558.92
                             4561.30  4567.46  5119.83  5482.16  5577.26

 Zero-point correction=                           0.415488 (Hartree/Particle)
 Thermal correction to Energy=                    0.437958
 Thermal correction to Enthalpy=                  0.438902
 Thermal correction to Gibbs Free Energy=         0.362302
 Sum of electronic and zero-point Energies=           -959.556375
 Sum of electronic and thermal Energies=              -959.533905
 Sum of electronic and thermal Enthalpies=            -959.532961
 Sum of electronic and thermal Free Energies=         -959.609561

                     E (Thermal)             CV                S
                      KCal/Mol        Cal/Mol-Kelvin    Cal/Mol-Kelvin
 Total                  274.823             85.024            161.218
 Electronic               0.000              0.000              1.377
 Translational            0.889              2.981             42.863
 Rotational               0.889              2.981             34.307
 Vibrational            273.045             79.063             82.671
 Vibration     1          0.593              1.985              6.122
 Vibration     2          0.593              1.984              6.056
 Vibration     3          0.594              1.982              5.338
 Vibration     4          0.595              1.980              5.071
 Vibration     5          0.597              1.973              4.465
 Vibration     6          0.598              1.969              4.184
 Vibration     7          0.601              1.959              3.738
 Vibration     8          0.604              1.949              3.455
 Vibration     9          0.606              1.942              3.283
 Vibration    10          0.612              1.923              2.941
 Vibration    11          0.625              1.879              2.434
 Vibration    12          0.634              1.853              2.226
 Vibration    13          0.641              1.830              2.073
 Vibration    14          0.642              1.826              2.044
 Vibration    15          0.659              1.773              1.773
 Vibration    16          0.664              1.759              1.716
 Vibration    17          0.671              1.738              1.631
 Vibration    18          0.676              1.724              1.579
 Vibration    19          0.688              1.688              1.460
 Vibration    20          0.689              1.685              1.452
 Vibration    21          0.693              1.671              1.410
 Vibration    22          0.702              1.647              1.342
 Vibration    23          0.710              1.624              1.280
 Vibration    24          0.720              1.596              1.212
 Vibration    25          0.722              1.589              1.198
 Vibration    26          0.754              1.502              1.020
 Vibration    27          0.768              1.465              0.955
 Vibration    28          0.776              1.443              0.917
 Vibration    29          0.790              1.409              0.864
 Vibration    30          0.809              1.362              0.797
 Vibration    31          0.828              1.314              0.735
 Vibration    32          0.850              1.263              0.673
 Vibration    33          0.916              1.117              0.523
 Vibration    34          0.922              1.105              0.512
 Vibration    35          0.943              1.062              0.475
 Vibration    36          0.946              1.055              0.469
 Vibration    37          0.949              1.050              0.465

                           ! Non-Optimized Parameters !
 Normal termination of Gaussian 16 at Fri Dec 25 16:39:05 2020.
