 Gaussian 16, Revision A.03,
 Gaussian 16:  ES64L-G16RevA.03 25-Dec-2016

 -----------------------------------------------------
 # opt freq 6-311g(d,p) scrf=(solvent=water,pcm) m062x
 -----------------------------------------------------

 -------------------
 Title Card Required
 -------------------
 Symbolic Z-matrix:
 Charge =  0 Multiplicity = 2

 SCF Done:  E(UM062X) =  -959.945827148     A.U. after   15 cycles
 SCF Done:  E(UM062X) =  -959.955795826     A.U. after   14 cycles
 SCF Done:  E(UM062X) =  -959.962819850     A.U. after   14 cycles
 SCF Done:  E(UM062X) =  -959.964698391     A.U. after   14 cycles
 SCF Done:  E(UM062X) =  -959.955848952     A.U. after   17 cycles
 SCF Done:  E(UM062X) =  -959.964852735     A.U. after   14 cycles
 SCF Done:  E(UM062X) =  -959.966292901     A.U. after   13 cycles
 SCF Done:  E(UM062X) =  -959.967099288     A.U. after   14 cycles
 SCF Done:  E(UM062X) =  -959.968051759     A.U. after   13 cycles
 SCF Done:  E(UM062X) =  -959.967429598     A.U. after   14 cycles
 SCF Done:  E(UM062X) =  -959.969611751     A.U. after   12 cycles
 SCF Done:  E(UM062X) =  -959.969616540     A.U. after   12 cycles
 SCF Done:  E(UM062X) =  -959.969616751     A.U. after   12 cycles
 SCF Done:  E(UM062X) =  -959.969618564     A.U. after   11 cycles
 SCF Done:  E(UM062X) =  -959.969619635     A.U. after   11 cycles
 SCF Done:  E(UM062X) =  -959.969619483     A.U. after   10 cycles
 SCF Done:  E(UM062X) =  -959.969619908     A.U. after   11 cycles
 SCF Done:  E(UM062X) =  -959.969619788     A.U. after    8 cycles
 SCF Done:  E(UM062X) =  -959.969619720     A.U. after    7 cycles
 Optimization completed.
    -- Stationary point found.
 Normal termination of Gaussian 16 at Tue Dec 22 20:58:10 2020.

 ----------------------------------------------------------------------
 #N Geom=AllCheck Guess=TCheck SCRF=Check GenChk UM062X/6-311G(d,p) Fre
 q
 ----------------------------------------------------------------------

 Structure from the checkpoint file:  "Tem_Prop_3.chk"
 -------------------
 Title Card Required
 -------------------
 Charge =  0 Multiplicity = 2

                         Standard orientation:
 ---------------------------------------------------------------------
 Center     Atomic      Atomic             Coordinates (Angstroms)
 Number     Number       Type             X           Y           Z
 ---------------------------------------------------------------------
      1          8           0        5.151544   -2.005796    0.124404
      2          1           0        4.961845   -2.932104   -0.052341
      3          6           0        1.555359   -0.790061    0.316917
      4          7           0        1.923500    0.656428    0.267577
      5          8           0        0.957492    1.482154    0.300578
      6          6           0        2.803573   -1.627441    0.611196
      7          6           0        4.006442   -1.245643   -0.238401
      8          6           0        4.348505    0.207847    0.023995
      9          6           0        3.205102    1.173298   -0.300348
     10          6           0        3.485463    2.523886    0.359303
     11          6           0        0.542541   -0.969399    1.448412
     12          6           0        3.040103    1.373399   -1.813885
     13          6           0        0.897503   -1.193376   -1.010801
     14          1           0        2.547797   -2.681071    0.460999
     15          1           0        3.088684   -1.503413    1.661611
     16          1           0        5.224615    0.498344   -0.561744
     17          1           0        4.613967    0.297294    1.083016
     18          1           0        4.463710    2.882402    0.032441
     19          1           0        3.494774    2.421089    1.446295
     20          1           0        2.728608    3.255420    0.080788
     21          1           0        0.924623   -0.535140    2.374588
     22          1           0        0.376440   -2.037926    1.604482
     23          1           0       -0.409927   -0.506813    1.191409
     24          1           0        3.787872   -1.399407   -1.302080
     25          1           0        2.138751    1.958292   -2.005511
     26          1           0        3.901704    1.921253   -2.201629
     27          1           0        2.968145    0.429934   -2.355339
     28          1           0        0.481383   -2.198746   -0.912548
     29          1           0        0.080482   -0.504751   -1.234717
     30          1           0        1.599078   -1.196164   -1.845163
     31          8           0       -6.338697   -0.606536   -0.161417
     32          8           0       -4.941722   -0.174065   -1.851999
     33          7           0       -2.693146   -0.456346   -0.224205
     34          6           0       -4.023192   -0.627962    0.344198
     35          6           0       -4.122886    0.444587    1.467415
     36          6           0       -2.848185    1.295498    1.296936
     37          6           0       -2.396618    0.979783   -0.126471
     38          6           0       -5.120525   -0.434634   -0.690432
     39          1           0       -4.154713   -1.636324    0.745935
     40          1           0       -4.176913   -0.024124    2.448682
     41          1           0       -5.023843    1.046129    1.342672
     42          1           0       -3.033624    2.358029    1.452328
     43          1           0       -2.079008    0.975007    2.002631
     44          1           0       -2.977865    1.571620   -0.847826
     45          1           0       -1.332583    1.164669   -0.281638
     46          1           0       -2.679682   -0.770149   -1.189972
     47          1           0       -6.994845   -0.478684   -0.861708
 ---------------------------------------------------------------------

 SCF Done:  E(UM062X) =  -959.969619720     A.U. after    1 cycles

 The electronic state is 2-A.
 Alpha  occ. eigenvalues --  -19.66977 -19.62226 -19.62009 -19.61765 -14.83698
 Alpha  occ. eigenvalues --  -14.73091 -10.67832 -10.59118 -10.59107 -10.59008
 Alpha  occ. eigenvalues --  -10.58045 -10.55082 -10.54136 -10.53745 -10.53699
 Alpha  occ. eigenvalues --  -10.53146 -10.52901 -10.52815 -10.52565 -10.52212
 Alpha  occ. eigenvalues --   -1.24492  -1.23110  -1.14959  -1.14879  -1.03370
 Alpha  occ. eigenvalues --   -0.98051  -0.92731  -0.86415  -0.86039  -0.84561
 Alpha  occ. eigenvalues --   -0.82007  -0.79112  -0.78198  -0.77936  -0.74132
 Alpha  occ. eigenvalues --   -0.69063  -0.68555  -0.66663  -0.66107  -0.61577
 Alpha  occ. eigenvalues --   -0.60542  -0.59410  -0.58957  -0.57959  -0.57231
 Alpha  occ. eigenvalues --   -0.56628  -0.55700  -0.53778  -0.53129  -0.52661
 Alpha  occ. eigenvalues --   -0.51315  -0.49928  -0.49728  -0.48649  -0.48034
 Alpha  occ. eigenvalues --   -0.47577  -0.47253  -0.46131  -0.45633  -0.44583
 Alpha  occ. eigenvalues --   -0.44352  -0.43764  -0.43424  -0.43339  -0.43075
 Alpha  occ. eigenvalues --   -0.41641  -0.41451  -0.40632  -0.40421  -0.39970
 Alpha  occ. eigenvalues --   -0.39851  -0.39608  -0.39484  -0.37790  -0.36119
 Alpha  occ. eigenvalues --   -0.34581  -0.33578  -0.29891  -0.26486
 Alpha virt. eigenvalues --    0.04613   0.06669   0.07527   0.08144   0.08866
 Alpha virt. eigenvalues --    0.09492   0.09946   0.10349   0.10844   0.11460
 Alpha virt. eigenvalues --    0.12003   0.13418   0.13526   0.14320   0.15178

  Beta  occ. eigenvalues --  -19.66977 -19.62009 -19.61764 -19.61186 -14.82882
  Beta  occ. eigenvalues --  -14.73091 -10.67832 -10.59136 -10.59119 -10.59037
  Beta  occ. eigenvalues --  -10.58044 -10.55080 -10.54135 -10.53742 -10.53696
  Beta  occ. eigenvalues --  -10.53146 -10.52866 -10.52779 -10.52553 -10.52200
  Beta  occ. eigenvalues --   -1.24492  -1.20157  -1.14959  -1.14875  -1.03369
  Beta  occ. eigenvalues --   -0.96835  -0.92547  -0.86414  -0.85438  -0.84556
  Beta  occ. eigenvalues --   -0.80397  -0.78895  -0.78141  -0.77844  -0.74129
  Beta  occ. eigenvalues --   -0.68818  -0.68019  -0.66660  -0.66104  -0.61164
  Beta  occ. eigenvalues --   -0.60541  -0.59397  -0.58394  -0.57801  -0.56277
  Beta  occ. eigenvalues --   -0.55966  -0.53799  -0.53148  -0.52813  -0.52083
  Beta  occ. eigenvalues --   -0.50966  -0.49818  -0.49492  -0.48614  -0.47723
  Beta  occ. eigenvalues --   -0.46965  -0.46607  -0.45930  -0.45458  -0.44542
  Beta  occ. eigenvalues --   -0.43504  -0.43414  -0.43343  -0.43255  -0.42116
  Beta  occ. eigenvalues --   -0.41637  -0.41179  -0.40397  -0.40078  -0.39944
  Beta  occ. eigenvalues --   -0.39581  -0.39411  -0.37968  -0.36844  -0.36117
  Beta  occ. eigenvalues --   -0.34514  -0.32090  -0.29849
  Beta virt. eigenvalues --   -0.01373   0.04615   0.06729   0.07554   0.08138
  Beta virt. eigenvalues --    0.08880   0.09483   0.09982   0.10367   0.10938
  Beta virt. eigenvalues --    0.11472   0.12017   0.13426   0.13558   0.14329

 Mulliken charges and spin densities:
               1          2
     1  O   -0.460010   0.000100
     2  H    0.278972   0.000044
     3  C   -0.106606  -0.013084
     4  N   -0.085176   0.467033
     5  O   -0.347932   0.488466
     6  C   -0.259149   0.007468
     7  C    0.018675  -0.003584
     8  C   -0.252726   0.007124
     9  C   -0.112114  -0.012690
    10  C   -0.324928   0.005118
    11  C   -0.325335   0.005766
    12  C   -0.322178   0.030464
    13  C   -0.322464   0.029561
    14  H    0.171309  -0.001297
    15  H    0.164135  -0.000445
    16  H    0.172657  -0.001341
    17  H    0.165270  -0.000415
    18  H    0.149261  -0.001340
    19  H    0.147893  -0.000129
    20  H    0.150941  -0.001209
    21  H    0.144615  -0.000399
    22  H    0.146177  -0.001354
    23  H    0.151942  -0.001066
    24  H    0.156217  -0.000539
    25  H    0.156175  -0.003033
    26  H    0.155671   0.002017
    27  H    0.143125  -0.001060
    28  H    0.153966   0.001959
    29  H    0.155121  -0.002418
    30  H    0.142281  -0.001090
    31  O   -0.371871   0.000000
    32  O   -0.402534  -0.000001
    33  N   -0.425210  -0.000037
    34  C   -0.171219   0.000026
    35  C   -0.291662   0.000126
    36  C   -0.281835  -0.000033
    37  C   -0.218845   0.002290
    38  C    0.434954   0.000016
    39  H    0.201097  -0.000014
    40  H    0.172492   0.000016
    41  H    0.171617  -0.000002
    42  H    0.161270   0.000008
    43  H    0.160990   0.000066
    44  H    0.150336  -0.000063
    45  H    0.171946  -0.001053
    46  H    0.231754   0.000026
    47  H    0.300930   0.000002
 Sum of Mulliken charges =   0.00000   1.00000

 Dipole moment (field-independent basis, Debye):
    X=             -0.2409    Y=             -2.7969    Z=             -0.3601  Tot=              2.8303
 Quadrupole moment (field-independent basis, Debye-Ang):
   XX=           -111.0590   YY=           -116.6884   ZZ=           -125.9903
   XY=             -1.3456   XZ=             -8.8005   YZ=              1.2856

  Exact polarizability: 245.054   2.355 225.463  -3.135  -1.654 219.998
 Approx polarizability: 216.083  -2.147 206.288  -3.579  -2.187 207.570

                      1                      2                      3
                      A                      A                      A
 Frequencies --     18.5632                22.4891                23.3650
 Red. masses --      4.4101                 4.8584                 4.6386
 Frc consts  --      0.0009                 0.0014                 0.0015

 IR Inten    --      0.5041                 0.9262                 0.9974

                      4                      5                      6
                      A                      A                      A
 Frequencies --     35.3458                43.2226                51.3472
 Red. masses --      4.8754                 3.9798                 5.6416
 Frc consts  --      0.0036                 0.0044                 0.0088

 IR Inten    --      0.8308                 0.5045                 0.2114

                      7                      8                      9
                      A                      A                      A
 Frequencies --     71.5317                76.9240                84.1336
 Red. masses --      4.0467                 4.1683                 3.5434
 Frc consts  --      0.0122                 0.0145                 0.0148

 IR Inten    --      1.3620                 2.9166                 7.6362

                     10                     11                     12
                      A                      A                      A
 Frequencies --    129.8262               171.3534               190.2823
 Red. masses --      2.4457                 3.3724                 1.0754
 Frc consts  --      0.0243                 0.0583                 0.0229

 IR Inten    --      0.8684                 1.8217                 0.2018

                     13                     14                     15
                      A                      A                      A
 Frequencies --    205.9813               223.0436               241.8010
 Red. masses --      3.1015                 3.0100                 1.0979
 Frc consts  --      0.0775                 0.0882                 0.0378

 IR Inten    --      1.7399                 4.7132                 0.0360

                     16                     17                     18
                      A                      A                      A
 Frequencies --    250.7816               260.0129               277.3249
 Red. masses --      2.6641                 1.1094                 1.4043
 Frc consts  --      0.0987                 0.0442                 0.0636

 IR Inten    --      5.7766                 0.7131                 1.9729

                     19                     20                     21
                      A                      A                      A
 Frequencies --    285.8099               298.6567               313.8384
 Red. masses --      2.0833                 2.3788                 2.8666
 Frc consts  --      0.1003                 0.1250                 0.1664

 IR Inten    --      5.7236                 5.6643                 1.4430

                     22                     23                     24
                      A                      A                      A
 Frequencies --    318.4088               324.9559               339.6789
 Red. masses --      1.2285                 1.6774                 2.9687
 Frc consts  --      0.0734                 0.1044                 0.2018

 IR Inten    --    130.3613                43.7787                15.2335

                     25                     26                     27
                      A                      A                      A
 Frequencies --    341.7758               384.6328               399.3716
 Red. masses --      3.0234                 2.8024                 3.8197
 Frc consts  --      0.2081                 0.2443                 0.3589

 IR Inten    --      2.3867                 4.7043                25.7131

                     28                     29                     30
                      A                      A                      A
 Frequencies --    411.9569               428.2238               445.3149
 Red. masses --      4.5197                 2.7427                 3.9989
 Frc consts  --      0.4519                 0.2963                 0.4672

 IR Inten    --      0.7273                 9.6734                35.0797

                     31                     32                     33
                      A                      A                      A
 Frequencies --    469.8198               494.8325               558.3978
 Red. masses --      2.9866                 2.1737                 1.5812
 Frc consts  --      0.3884                 0.3136                 0.2905

 IR Inten    --      2.0921                 4.0313               129.0416

                     34                     35                     36
                      A                      A                      A
 Frequencies --    564.7477               584.7007               589.2842
 Red. masses --      2.8317                 1.6264                 3.0461
 Frc consts  --      0.5321                 0.3276                 0.6232

 IR Inten    --      2.5474                10.7630                12.8134

                     37                     38                     39
                      A                      A                      A
 Frequencies --    592.1294               641.4759               674.8346
 Red. masses --      3.9023                 3.1278                 3.6107
 Frc consts  --      0.8061                 0.7583                 0.9688

 IR Inten    --     12.0634                30.1474               103.0768

                     40                     41                     42
                      A                      A                      A
 Frequencies --    709.0700               751.3593               808.1954
 Red. masses --      3.4900                 2.3762                 2.0777
 Frc consts  --      1.0338                 0.7904                 0.7996

 IR Inten    --     24.2955                53.6966                33.7921

                     43                     44                     45
                      A                      A                      A
 Frequencies --    830.3764               846.9628               876.5177
 Red. masses --      2.5310                 2.0747                 2.5463
 Frc consts  --      1.0282                 0.8769                 1.1526

 IR Inten    --      1.2730                65.0157                 1.3650

                     46                     47                     48
                      A                      A                      A
 Frequencies --    884.5940               901.3871               926.6538
 Red. masses --      1.5872                 2.0588                 2.3093
 Frc consts  --      0.7318                 0.9856                 1.1683

 IR Inten    --      2.4605                67.6861                20.5112

                     49                     50                     51
                      A                      A                      A
 Frequencies --    935.7896               942.5187               951.6050
 Red. masses --      1.8593                 2.7863                 1.4956
 Frc consts  --      0.9593                 1.4583                 0.7979

 IR Inten    --      1.1501                 5.8673                 2.0109

                     52                     53                     54
                      A                      A                      A
 Frequencies --    959.3130               971.0211               981.7195
 Red. masses --      1.4769                 1.6592                 2.0679
 Frc consts  --      0.8008                 0.9217                 1.1742

 IR Inten    --      3.3409                 0.6410                 9.5056

                     55                     56                     57
                      A                      A                      A
 Frequencies --    990.4612              1008.9767              1013.1935
 Red. masses --      1.6630                 2.3093                 1.4107
 Frc consts  --      0.9612                 1.3852                 0.8532

 IR Inten    --      4.3836                12.4546                 1.9616

                     58                     59                     60
                      A                      A                      A
 Frequencies --   1018.5794              1059.9989              1079.4402
 Red. masses --      1.3456                 1.5849                 2.1547
 Frc consts  --      0.8225                 1.0492                 1.4792

 IR Inten    --      3.6161                 2.6709                 0.2809

                     61                     62                     63
                      A                      A                      A
 Frequencies --   1081.0529              1103.7580              1113.7421
 Red. masses --      1.6603                 1.8509                 2.3539
 Frc consts  --      1.1432                 1.3286                 1.7203

 IR Inten    --     10.9240                56.4337                72.2913

                     64                     65                     66
                      A                      A                      A
 Frequencies --   1116.0877              1122.1241              1158.0129
 Red. masses --      1.8334                 1.8191                 2.9018
 Frc consts  --      1.3455                 1.3496                 2.2927

 IR Inten    --      0.6873                 3.0886               227.8941

                     67                     68                     69
                      A                      A                      A
 Frequencies --   1194.1890              1198.1101              1208.6148
 Red. masses --      1.8114                 2.1840                 1.4600
 Frc consts  --      1.5220                 1.8471                 1.2565

 IR Inten    --    213.6283                34.5554                 5.0792

                     70                     71                     72
                      A                      A                      A
 Frequencies --   1215.1309              1227.9176              1229.5114
 Red. masses --      2.4607                 2.4608                 1.5126
 Frc consts  --      2.1407                 2.1860                 1.3473

 IR Inten    --     32.5156                22.8596                 8.5215

                     73                     74                     75
                      A                      A                      A
 Frequencies --   1243.6257              1254.6795              1268.8465
 Red. masses --      1.4249                 2.0843                 1.7057
 Frc consts  --      1.2985                 1.9332                 1.6180

 IR Inten    --      8.1935                32.0819                29.4965

                     76                     77                     78
                      A                      A                      A
 Frequencies --   1276.5609              1284.9456              1291.2605
 Red. masses --      1.2077                 2.4459                 1.7354
 Frc consts  --      1.1596                 2.3794                 1.7048

 IR Inten    --      4.0024                31.8708                43.2086

                     79                     80                     81
                      A                      A                      A
 Frequencies --   1310.4487              1324.5630              1328.0295
 Red. masses --      1.3497                 1.3761                 1.3824
 Frc consts  --      1.3656                 1.4225                 1.4365

 IR Inten    --      5.1127                 2.2855                12.1569

                     82                     83                     84
                      A                      A                      A
 Frequencies --   1340.6019              1348.9814              1366.4854
 Red. masses --      1.3436                 1.5483                 1.6502
 Frc consts  --      1.4228                 1.6600                 1.8155

 IR Inten    --     21.5507                11.0968                46.1247

                     85                     86                     87
                      A                      A                      A
 Frequencies --   1373.6801              1391.2304              1398.6675
 Red. masses --      1.4916                 1.3044                 1.3303
 Frc consts  --      1.6584                 1.4876                 1.5333

 IR Inten    --      7.6393                 1.9223                39.3856

                     88                     89                     90
                      A                      A                      A
 Frequencies --   1407.4426              1407.7642              1411.2882
 Red. masses --      1.6248                 1.5426                 1.2603
 Frc consts  --      1.8963                 1.8013                 1.4790

 IR Inten    --     82.9849                42.3146                 9.2509

                     91                     92                     93
                      A                      A                      A
 Frequencies --   1414.6152              1455.5405              1460.1810
 Red. masses --      1.5346                 1.5355                 1.4756
 Frc consts  --      1.8093                 1.9167                 1.8536

 IR Inten    --     33.5082                10.6178                13.4738

                     94                     95                     96
                      A                      A                      A
 Frequencies --   1469.5287              1473.7742              1478.2745
 Red. masses --      1.0615                 1.0778                 1.0574
 Frc consts  --      1.3506                 1.3792                 1.3615

 IR Inten    --      3.9708                 0.5400                 4.5488

                     97                     98                     99
                      A                      A                      A
 Frequencies --   1479.9370              1483.1791              1488.0537
 Red. masses --      1.4927                 1.4700                 1.1636
 Frc consts  --      1.9262                 1.9053                 1.5180

 IR Inten    --      2.3111                 5.0519                 7.0471

                    100                    101                    102
                      A                      A                      A
 Frequencies --   1488.8546              1489.4206              1496.5908
 Red. masses --      1.1806                 1.0832                 1.1411
 Frc consts  --      1.5419                 1.4158                 1.5059

 IR Inten    --      2.5192                 2.8317                10.7144

                    103                    104                    105
                      A                      A                      A
 Frequencies --   1500.2270              1501.7231              1506.4180
 Red. masses --      1.0999                 1.0720                 1.0957
 Frc consts  --      1.4586                 1.4244                 1.4650

 IR Inten    --      6.4455                14.0686                 9.0434

                    106                    107                    108
                      A                      A                      A
 Frequencies --   1512.3733              1527.8734              1841.9956
 Red. masses --      1.1694                 1.0962                10.8869
 Frc consts  --      1.5758                 1.5077                21.7636

 IR Inten    --     17.4314                13.4704               504.4430

                    109                    110                    111
                      A                      A                      A
 Frequencies --   3008.9892              3043.2764              3054.1827
 Red. masses --      1.0698                 1.0809                 1.0602
 Frc consts  --      5.7069                 5.8980                 5.8268

 IR Inten    --     92.2953                16.9777                21.0418

                    112                    113                    114
                      A                      A                      A
 Frequencies --   3062.0655              3066.3742              3069.1579
 Red. masses --      1.0616                 1.0364                 1.0355
 Frc consts  --      5.8645                 5.7414                 5.7469

 IR Inten    --     41.0468                35.7450                25.4328

                    115                    116                    117
                      A                      A                      A
 Frequencies --   3071.4623              3074.2113              3083.2998
 Red. masses --      1.0365                 1.0373                 1.0845
 Frc consts  --      5.7613                 5.7761                 6.0744

 IR Inten    --     39.2357                 9.8507                27.7204

                    118                    119                    120
                      A                      A                      A
 Frequencies --   3088.8659              3104.1696              3105.7592
 Red. masses --      1.0634                 1.1045                 1.0635
 Frc consts  --      5.9776                 6.2704                 6.0437

 IR Inten    --     35.8736                33.8055                28.0106

                    121                    122                    123
                      A                      A                      A
 Frequencies --   3115.9444              3127.0652              3140.7229
 Red. masses --      1.1027                 1.0949                 1.1030
 Frc consts  --      6.3080                 6.3083                 6.4103

 IR Inten    --     31.5601                 3.8701                16.5839

                    124                    125                    126
                      A                      A                      A
 Frequencies --   3142.0734              3144.2332              3145.4521
 Red. masses --      1.1027                 1.1030                 1.1024
 Frc consts  --      6.4144                 6.4248                 6.4261

 IR Inten    --     20.4788                25.1868                45.9309

                    127                    128                    129
                      A                      A                      A
 Frequencies --   3147.8118              3155.9008              3157.1637
 Red. masses --      1.1025                 1.1034                 1.1063
 Frc consts  --      6.4366                 6.4751                 6.4971

 IR Inten    --     31.1141                11.4095                39.5877

                    130                    131                    132
                      A                      A                      A
 Frequencies --   3167.9434              3168.9385              3169.7439
 Red. masses --      1.1012                 1.1023                 1.1019
 Frc consts  --      6.5116                 6.5218                 6.5226

 IR Inten    --     25.5389                12.6969                19.7454

                    133                    134                    135
                      A                      A                      A
 Frequencies --   3561.4195              3808.5632              3876.9235
 Red. masses --      1.0742                 1.0650                 1.0666
 Frc consts  --      8.0273                 9.1014                 9.4453

 IR Inten    --     16.1749               145.6459                71.4609

 - Thermochemistry -
 -------------------
 Temperature   298.150 Kelvin.  Pressure   1.00000 Atm.
 Atom     1 has atomic number  8 and mass  15.99491

 Molecular mass:   287.19708 amu.
 Principal axes and moments of inertia in atomic units:
                           1         2         3
     Eigenvalues --  2469.10445********************
           X            0.99997   0.00094  -0.00817
           Y           -0.00104   0.99993  -0.01171
           Z            0.00815   0.01171   0.99990
 This molecule is an asymmetric top.
 Rotational symmetry number  1.
 Warning -- assumption of classical behavior for rotation
           may cause significant error
 Rotational temperatures (Kelvin)      0.03508     0.00604     0.00578
 Rotational constants (GHZ):           0.73093     0.12595     0.12042
 Zero-point vibrational energy    1089890.9 (Joules/Mol)
                                  260.49019 (Kcal/Mol)
 Warning -- explicit consideration of  37 degrees of freedom as
           vibrations may cause significant error
 Vibrational temperatures:     26.71    32.36    33.62    50.85    62.19
          (Kelvin)             73.88   102.92   110.68   121.05   186.79
                              246.54   273.77   296.36   320.91   347.90
                              360.82   374.10   399.01   411.22   429.70
                              451.54   458.12   467.54   488.72   491.74
                              553.40   574.61   592.71   616.12   640.71
                              675.97   711.95   803.41   812.55   841.25
                              847.85   851.94   922.94   970.94  1020.19
                             1081.04  1162.81  1194.73  1218.59  1261.11
                             1272.73  1296.90  1333.25  1346.39  1356.07
                             1369.15  1380.24  1397.08  1412.48  1425.05
                             1451.69  1457.76  1465.51  1525.10  1553.07
                             1555.39  1588.06  1602.43  1605.80  1614.49
                             1666.12  1718.17  1723.81  1738.93  1748.30
                             1766.70  1768.99  1789.30  1805.20  1825.59
                             1836.69  1848.75  1857.84  1885.44  1905.75
                             1910.74  1928.83  1940.88  1966.07  1976.42
                             2001.67  2012.37  2025.00  2025.46  2030.53
                             2035.32  2094.20  2100.87  2114.32  2120.43
                             2126.91  2129.30  2133.96  2140.98  2142.13
                             2142.94  2153.26  2158.49  2160.64  2167.40
                             2175.97  2198.27  2650.22  4329.26  4378.60
                             4394.29  4405.63  4411.83  4415.83  4419.15
                             4423.10  4436.18  4444.19  4466.21  4468.49
                             4483.15  4499.15  4518.80  4520.74  4523.85
                             4525.60  4529.00  4540.64  4542.45  4557.96
                             4559.40  4560.55  5124.09  5479.67  5578.03

 Zero-point correction=                           0.415118 (Hartree/Particle)
 Thermal correction to Energy=                    0.437845
 Thermal correction to Enthalpy=                  0.438789
 Thermal correction to Gibbs Free Energy=         0.359686
 Sum of electronic and zero-point Energies=           -959.554502
 Sum of electronic and thermal Energies=              -959.531775
 Sum of electronic and thermal Enthalpies=            -959.530831
 Sum of electronic and thermal Free Energies=         -959.609934

                     E (Thermal)             CV                S
                      KCal/Mol        Cal/Mol-Kelvin    Cal/Mol-Kelvin
 Total                  274.752             85.117            166.486
 Electronic               0.000              0.000              1.377
 Translational            0.889              2.981             42.863
 Rotational               0.889              2.981             34.627
 Vibrational            272.974             79.155             87.619
 Vibration     1          0.593              1.986              6.782
 Vibration     2          0.593              1.985              6.401
 Vibration     3          0.593              1.985              6.325
 Vibration     4          0.594              1.982              5.504
 Vibration     5          0.595              1.980              5.106
 Vibration     6          0.596              1.977              4.765
 Vibration     7          0.598              1.968              4.111
 Vibration     8          0.599              1.965              3.968
 Vibration     9          0.601              1.960              3.792
 Vibration    10          0.612              1.923              2.949
 Vibration    11          0.626              1.878              2.421
 Vibration    12          0.634              1.853              2.225
 Vibration    13          0.640              1.831              2.079
 Vibration    14          0.649              1.806              1.934
 Vibration    15          0.658              1.776              1.790
 Vibration    16          0.663              1.761              1.725
 Vibration    17          0.668              1.746              1.662
 Vibration    18          0.678              1.715              1.550
 Vibration    19          0.684              1.700              1.499
 Vibration    20          0.692              1.676              1.424
 Vibration    21          0.702              1.647              1.342
 Vibration    22          0.705              1.638              1.318
 Vibration    23          0.709              1.626              1.285
 Vibration    24          0.720              1.596              1.214
 Vibration    25          0.721              1.592              1.204
 Vibration    26          0.754              1.503              1.021
 Vibration    27          0.765              1.471              0.965
 Vibration    28          0.776              1.444              0.920
 Vibration    29          0.790              1.409              0.864
 Vibration    30          0.805              1.371              0.810
 Vibration    31          0.827              1.317              0.738
 Vibration    32          0.850              1.261              0.671
 Vibration    33          0.914              1.121              0.527
 Vibration    34          0.921              1.108              0.514
 Vibration    35          0.942              1.064              0.477
 Vibration    36          0.947              1.055              0.468
 Vibration    37          0.950              1.049              0.463

 Optimization completed.
    -- Stationary point found.
 Normal termination of Gaussian 16 at Tue Dec 22 21:43:36 2020.
