 Gaussian 16, Revision A.03,
 Gaussian 16:  ES64L-G16RevA.03 25-Dec-2016

 -----------------------------------------------------
 # opt freq 6-311g(d,p) scrf=(solvent=water,pcm) m062x
 -----------------------------------------------------

 -------------------
 Title Card Required
 -------------------
 Symbolic Z-matrix:
 Charge =  0 Multiplicity = 2

 SCF Done:  E(UM062X) =  -959.964309564     A.U. after   15 cycles
 SCF Done:  E(UM062X) =  -959.964136402     A.U. after   14 cycles
 SCF Done:  E(UM062X) =  -959.964865124     A.U. after   14 cycles
 SCF Done:  E(UM062X) =  -959.964991299     A.U. after   13 cycles
 SCF Done:  E(UM062X) =  -959.965049965     A.U. after   17 cycles
 SCF Done:  E(UM062X) =  -959.965170271     A.U. after   13 cycles
 SCF Done:  E(UM062X) =  -959.965140740     A.U. after   14 cycles
 SCF Done:  E(UM062X) =  -959.966153232     A.U. after   17 cycles
 SCF Done:  E(UM062X) =  -959.949003616     A.U. after   17 cycles
 SCF Done:  E(UM062X) =  -959.966242444     A.U. after   14 cycles
 SCF Done:  E(UM062X) =  -959.972048648     A.U. after   10 cycles
 SCF Done:  E(UM062X) =  -959.972048047     A.U. after   10 cycles
 SCF Done:  E(UM062X) =  -959.972048034     A.U. after   10 cycles
 SCF Done:  E(UM062X) =  -959.972048072     A.U. after   10 cycles
 SCF Done:  E(UM062X) =  -959.972047506     A.U. after   10 cycles
 SCF Done:  E(UM062X) =  -959.972048046     A.U. after   10 cycles
 SCF Done:  E(UM062X) =  -959.972047333     A.U. after   10 cycles
 SCF Done:  E(UM062X) =  -959.972048056     A.U. after   10 cycles
 SCF Done:  E(UM062X) =  -959.972047144     A.U. after   10 cycles
 Optimization completed.
    -- Stationary point found.
 Normal termination of Gaussian 16 at Mon May  3 23:31:23 2021.

 ----------------------------------------------------------------------
 #N Geom=AllCheck Guess=TCheck SCRF=Check GenChk UM062X/6-311G(d,p) Fre
 q
 ----------------------------------------------------------------------

 Structure from the checkpoint file:  "Tem_Prop_Cy2_3-3.chk"
 -------------------
 Title Card Required
 -------------------
 Charge =  0 Multiplicity = 2

                         Standard orientation:
 ---------------------------------------------------------------------
 Center     Atomic      Atomic             Coordinates (Angstroms)
 Number     Number       Type             X           Y           Z
 ---------------------------------------------------------------------
      1          8           0        2.575899   -3.130973   -0.650254
      2          1           0        3.187879   -3.288704   -1.375416
      3          6           0        2.293766    0.637731   -1.061129
      4          7           0        1.632546    0.850250    0.260361
      5          8           0        1.372322    2.056073    0.566711
      6          6           0        2.273970   -0.850368   -1.424121
      7          6           0        2.678718   -1.763286   -0.277083
      8          6           0        1.711984   -1.551234    0.870433
      9          6           0        1.696247   -0.114202    1.397960
     10          6           0        0.433949    0.089964    2.234614
     11          6           0        1.489595    1.414779   -2.102993
     12          6           0        2.936004    0.195675    2.248256
     13          6           0        3.725017    1.189131   -0.995443
     14          1           0        2.933843   -0.998233   -2.285002
     15          1           0        1.261823   -1.137792   -1.728677
     16          1           0        1.956827   -2.221824    1.698291
     17          1           0        0.711807   -1.818495    0.510606
     18          1           0        0.394300   -0.670029    3.017787
     19          1           0       -0.442692   -0.010136    1.592776
     20          1           0        0.423155    1.077998    2.693868
     21          1           0        0.448605    1.086232   -2.081438
     22          1           0        1.904883    1.219359   -3.093928
     23          1           0        1.530776    2.485117   -1.905048
     24          1           0        3.705455   -1.547467    0.043121
     25          1           0        2.943049    1.256729    2.503320
     26          1           0        2.896757   -0.386664    3.171437
     27          1           0        3.866027   -0.047473    1.733193
     28          1           0        4.159270    1.192158   -1.997585
     29          1           0        3.701078    2.213792   -0.620649
     30          1           0        4.370212    0.594284   -0.347884
     31          8           0       -4.789827   -1.457116    0.676629
     32          8           0       -4.419155   -0.913738   -1.460634
     33          7           0       -1.911194    0.159013   -0.875658
     34          6           0       -2.742396   -0.371627    0.199887
     35          6           0       -2.993289    0.830947    1.159194
     36          6           0       -2.278389    2.010743    0.478073
     37          6           0       -2.249311    1.585205   -0.985720
     38          6           0       -4.058752   -0.928766   -0.312283
     39          1           0       -2.239063   -1.193478    0.718671
     40          1           0       -2.614248    0.626902    2.160018
     41          1           0       -4.063215    1.025854    1.249105
     42          1           0       -2.797433    2.956235    0.634140
     43          1           0       -1.252494    2.104506    0.841410
     44          1           0       -3.233298    1.744722   -1.449287
     45          1           0       -1.497391    2.116151   -1.571024
     46          1           0       -2.106034   -0.333856   -1.741826
     47          1           0       -5.615919   -1.792869    0.299614
 ---------------------------------------------------------------------

 SCF Done:  E(UM062X) =  -959.972047144     A.U. after    1 cycles

 The electronic state is 2-A.
 Alpha  occ. eigenvalues --  -19.67068 -19.62105 -19.62044 -19.61768 -14.83574
 Alpha  occ. eigenvalues --  -14.73366 -10.67955 -10.59098 -10.59002 -10.58993
 Alpha  occ. eigenvalues --  -10.58213 -10.55593 -10.54301 -10.53701 -10.53680
 Alpha  occ. eigenvalues --  -10.53031 -10.52851 -10.52847 -10.52439 -10.52332
 Alpha  occ. eigenvalues --   -1.24591  -1.22955  -1.15073  -1.14878  -1.03529
 Alpha  occ. eigenvalues --   -0.97980  -0.92735  -0.86598  -0.86018  -0.84780
 Alpha  occ. eigenvalues --   -0.81897  -0.79169  -0.78206  -0.77974  -0.74228
 Alpha  occ. eigenvalues --   -0.69025  -0.68515  -0.66840  -0.66196  -0.61529
 Alpha  occ. eigenvalues --   -0.60816  -0.59587  -0.58889  -0.57874  -0.57233
 Alpha  occ. eigenvalues --   -0.56548  -0.55658  -0.53868  -0.53284  -0.52640
 Alpha  occ. eigenvalues --   -0.51290  -0.49980  -0.49675  -0.48698  -0.48181
 Alpha  occ. eigenvalues --   -0.47636  -0.47250  -0.46197  -0.45641  -0.44845
 Alpha  occ. eigenvalues --   -0.44298  -0.43857  -0.43647  -0.43307  -0.42949
 Alpha  occ. eigenvalues --   -0.41814  -0.41381  -0.40705  -0.40432  -0.40149
 Alpha  occ. eigenvalues --   -0.39843  -0.39565  -0.39407  -0.37770  -0.36177
 Alpha  occ. eigenvalues --   -0.34612  -0.33436  -0.30167  -0.26223
 Alpha virt. eigenvalues --    0.04521   0.06554   0.07549   0.08107   0.08746
 Alpha virt. eigenvalues --    0.09048   0.09560   0.10436   0.10772   0.11851
 Alpha virt. eigenvalues --    0.12191   0.12672   0.14261   0.14334   0.15485

  Beta  occ. eigenvalues --  -19.67068 -19.62105 -19.61768 -19.61017 -14.82752
  Beta  occ. eigenvalues --  -14.73360 -10.67955 -10.59099 -10.59032 -10.59024
  Beta  occ. eigenvalues --  -10.58213 -10.55593 -10.54301 -10.53699 -10.53678
  Beta  occ. eigenvalues --  -10.53028 -10.52815 -10.52812 -10.52426 -10.52319
  Beta  occ. eigenvalues --   -1.24591  -1.20013  -1.15073  -1.14874  -1.03521
  Beta  occ. eigenvalues --   -0.96779  -0.92551  -0.86591  -0.85418  -0.84778
  Beta  occ. eigenvalues --   -0.80278  -0.78942  -0.78124  -0.77911  -0.74226
  Beta  occ. eigenvalues --   -0.68793  -0.67976  -0.66832  -0.66193  -0.61137
  Beta  occ. eigenvalues --   -0.60809  -0.59568  -0.58439  -0.57748  -0.56196
  Beta  occ. eigenvalues --   -0.55855  -0.53989  -0.53304  -0.52708  -0.52044
  Beta  occ. eigenvalues --   -0.50970  -0.49896  -0.49402  -0.48649  -0.47716
  Beta  occ. eigenvalues --   -0.47116  -0.46726  -0.45962  -0.45483  -0.44826
  Beta  occ. eigenvalues --   -0.43708  -0.43467  -0.43349  -0.43099  -0.42153
  Beta  occ. eigenvalues --   -0.41784  -0.41187  -0.40504  -0.40147  -0.39968
  Beta  occ. eigenvalues --   -0.39642  -0.39290  -0.37904  -0.36829  -0.36071
  Beta  occ. eigenvalues --   -0.34526  -0.31938  -0.30094
  Beta virt. eigenvalues --   -0.01164   0.04542   0.06623   0.07585   0.08152
  Beta virt. eigenvalues --    0.08810   0.09066   0.09586   0.10479   0.10874
  Beta virt. eigenvalues --    0.11842   0.12190   0.12690   0.14297   0.14371

 Mulliken charges and spin densities:
               1          2
     1  O   -0.459690   0.000067
     2  H    0.278797   0.000033
     3  C   -0.102529  -0.011505
     4  N   -0.084645   0.470328
     5  O   -0.352462   0.483123
     6  C   -0.263660   0.006552
     7  C    0.021845  -0.003405
     8  C   -0.259709   0.005771
     9  C   -0.094813  -0.012234
    10  C   -0.332863   0.003321
    11  C   -0.333111   0.004071
    12  C   -0.321598   0.029273
    13  C   -0.321775   0.029936
    14  H    0.171189  -0.001496
    15  H    0.160745  -0.000443
    16  H    0.172594  -0.001430
    17  H    0.163858  -0.000095
    18  H    0.152176  -0.001288
    19  H    0.140421   0.004961
    20  H    0.155617  -0.000974
    21  H    0.149765   0.002076
    22  H    0.148119  -0.001353
    23  H    0.149598  -0.001332
    24  H    0.155649  -0.000662
    25  H    0.155150  -0.002969
    26  H    0.154682   0.001772
    27  H    0.142216  -0.000976
    28  H    0.154399   0.001890
    29  H    0.155108  -0.003106
    30  H    0.142531  -0.000942
    31  O   -0.370449  -0.000005
    32  O   -0.402024   0.000004
    33  N   -0.424460   0.000301
    34  C   -0.193458   0.000641
    35  C   -0.313208   0.000130
    36  C   -0.289338   0.005188
    37  C   -0.178076  -0.001443
    38  C    0.442345   0.000031
    39  H    0.207128  -0.000414
    40  H    0.178415  -0.000071
    41  H    0.175617   0.000139
    42  H    0.161358   0.000063
    43  H    0.163069  -0.004021
    44  H    0.148152   0.000093
    45  H    0.159800   0.000224
    46  H    0.235154   0.000170
    47  H    0.302373   0.000003
 Sum of Mulliken charges =   0.00000   1.00000

 Dipole moment (field-independent basis, Debye):
    X=              1.4300    Y=             -1.9999    Z=             -0.0264  Tot=              2.4587
 Quadrupole moment (field-independent basis, Debye-Ang):
   XX=           -102.0893   YY=           -132.2890   ZZ=           -120.1630
   XY=             -3.4368   XZ=            -12.8272   YZ=             -1.2750

  Exact polarizability: 225.911   3.097 230.264  -5.788  -1.792 236.766
 Approx polarizability: 204.038   0.664 212.120  -2.775   0.020 216.998

                      1                      2                      3
                      A                      A                      A
 Frequencies --     23.2657                25.5128                39.3698
 Red. masses --      5.5897                 4.3985                 4.8960
 Frc consts  --      0.0018                 0.0017                 0.0045
 IR Inten    --      0.4708                 1.0494                 0.5392

                      4                      5                      6
                      A                      A                      A
 Frequencies --     50.2748                60.8717                72.9598
 Red. masses --      6.2092                 4.7862                 5.5788
 Frc consts  --      0.0092                 0.0104                 0.0175
 IR Inten    --      3.1025                 0.2791                 1.6967

                      7                      8                      9
                      A                      A                      A
 Frequencies --     91.0380                98.7222               122.1296
 Red. masses --      4.0529                 4.9329                 2.5142
 Frc consts  --      0.0198                 0.0283                 0.0221
 IR Inten    --      2.8773                 7.4890                 2.2577

                     10                     11                     12
                      A                      A                      A
 Frequencies --    133.2581               170.7206               204.0113
 Red. masses --      2.5334                 3.4025                 1.1209
 Frc consts  --      0.0265                 0.0584                 0.0275
 IR Inten    --      1.9238                 0.8439                 0.2099

                     13                     14                     15
                      A                      A                      A
 Frequencies --    216.5290               220.7168               254.9141
 Red. masses --      2.9297                 3.1657                 1.0808
 Frc consts  --      0.0809                 0.0909                 0.0414
 IR Inten    --      1.5398                 2.1376                 0.5687

                     16                     17                     18
                      A                      A                      A
 Frequencies --    264.6348               272.6702               281.0887
 Red. masses --      1.5004                 1.9992                 1.3880
 Frc consts  --      0.0619                 0.0876                 0.0646
 IR Inten    --      5.7369                 3.1311                 6.1339

                     19                     20                     21
                      A                      A                      A
 Frequencies --    291.7857               297.3042               303.7818
 Red. masses --      1.2065                 2.0733                 1.6616
 Frc consts  --      0.0605                 0.1080                 0.0903
 IR Inten    --     79.6406                61.9972                37.2585

                     22                     23                     24
                      A                      A                      A
 Frequencies --    315.8199               324.3803               338.6298
 Red. masses --      2.8863                 1.8765                 2.5963
 Frc consts  --      0.1696                 0.1163                 0.1754
 IR Inten    --      2.8014                 0.5969                 8.4084

                     25                     26                     27
                      A                      A                      A
 Frequencies --    340.0864               389.2916               398.3193
 Red. masses --      2.9571                 2.9950                 3.8141
 Frc consts  --      0.2015                 0.2674                 0.3565
 IR Inten    --      9.1734                 4.2956                24.0463

                     28                     29                     30
                      A                      A                      A
 Frequencies --    411.4081               429.9748               444.3510
 Red. masses --      4.3192                 2.6675                 4.1035
 Frc consts  --      0.4307                 0.2906                 0.4774
 IR Inten    --      0.3745                10.1314                32.8816

                     31                     32                     33
                      A                      A                      A
 Frequencies --    468.7196               501.2634               561.4611
 Red. masses --      3.0658                 2.2176                 1.5974
 Frc consts  --      0.3968                 0.3283                 0.2967
 IR Inten    --      1.7800                 3.6683               126.9513

                     34                     35                     36
                      A                      A                      A
 Frequencies --    567.3235               583.8116               588.6012
 Red. masses --      2.8017                 1.5274                 2.9859
 Frc consts  --      0.5313                 0.3067                 0.6095
 IR Inten    --      4.7887                15.4920                 7.9115

                     37                     38                     39
                      A                      A                      A
 Frequencies --    590.6252               639.6249               671.9012
 Red. masses --      3.8579                 3.1374                 3.6072
 Frc consts  --      0.7929                 0.7563                 0.9595
 IR Inten    --     11.9647                26.2027                97.8023

                     40                     41                     42
                      A                      A                      A
 Frequencies --    707.6898               749.0023               817.7021
 Red. masses --      3.4586                 2.7527                 2.0118
 Frc consts  --      1.0205                 0.9099                 0.7926
 IR Inten    --     21.8468                52.9789                72.7186

                     43                     44                     45
                      A                      A                      A
 Frequencies --    831.1277               851.4637               878.7062
 Red. masses --      2.5020                 2.0141                 2.5403
 Frc consts  --      1.0183                 0.8603                 1.1556
 IR Inten    --      1.4746                47.9931                 2.1429

                     46                     47                     48
                      A                      A                      A
 Frequencies --    886.6590               903.1102               925.7576
 Red. masses --      1.5870                 2.0698                 2.2878
 Frc consts  --      0.7351                 0.9946                 1.1552
 IR Inten    --      2.2582                55.1434                20.3892

                     49                     50                     51
                      A                      A                      A
 Frequencies --    934.5838               942.0801               950.2296
 Red. masses --      1.8249                 2.5700                 1.4988
 Frc consts  --      0.9391                 1.3439                 0.7973
 IR Inten    --      0.6060                 3.9432                 1.5600

                     52                     53                     54
                      A                      A                      A
 Frequencies --    957.2544               971.2251               982.3664
 Red. masses --      1.4570                 1.6946                 2.0622
 Frc consts  --      0.7866                 0.9418                 1.1725
 IR Inten    --      2.2453                 2.3821                10.3937

                     55                     56                     57
                      A                      A                      A
 Frequencies --    991.6230              1006.8930              1013.9750
 Red. masses --      1.6557                 2.3413                 1.3537
 Frc consts  --      0.9592                 1.3985                 0.8200
 IR Inten    --      4.1730                13.2249                 1.2727

                     58                     59                     60
                      A                      A                      A
 Frequencies --   1015.5135              1062.3030              1073.6616
 Red. masses --      1.4076                 1.6133                 1.5739
 Frc consts  --      0.8553                 1.0727                 1.0690
 IR Inten    --      2.9109                 1.4293                 6.1232

                     61                     62                     63
                      A                      A                      A
 Frequencies --   1084.8470              1104.6795              1115.3956
 Red. masses --      2.2497                 1.9972                 2.4185
 Frc consts  --      1.5600                 1.4360                 1.7728
 IR Inten    --      2.2166                69.3003                51.0010

                     64                     65                     66
                      A                      A                      A
 Frequencies --   1120.6480              1124.4532              1157.6474
 Red. masses --      1.8330                 1.6600                 3.1644
 Frc consts  --      1.3563                 1.2366                 2.4986
 IR Inten    --      2.3591                 7.1672               222.8976

                     67                     68                     69
                      A                      A                      A
 Frequencies --   1197.1791              1199.9380              1204.0375
 Red. masses --      1.8164                 2.1383                 1.5079
 Frc consts  --      1.5338                 1.8140                 1.2879
 IR Inten    --    215.1321                44.7344                 3.8017

                     70                     71                     72
                      A                      A                      A
 Frequencies --   1216.6761              1225.6761              1228.6056
 Red. masses --      2.4701                 1.5765                 2.5843
 Frc consts  --      2.1543                 1.3954                 2.2984
 IR Inten    --     34.3585                12.9842                20.6579

                     73                     74                     75
                      A                      A                      A
 Frequencies --   1241.3685              1256.4212              1270.0943
 Red. masses --      1.3004                 2.0957                 1.7438
 Frc consts  --      1.1806                 1.9492                 1.6574
 IR Inten    --      3.3834                35.1617                28.8370

                     76                     77                     78
                      A                      A                      A
 Frequencies --   1285.5587              1286.3805              1293.4728
 Red. masses --      1.2457                 2.3674                 1.7579
 Frc consts  --      1.2129                 2.3081                 1.7328
 IR Inten    --      2.8884                34.8428                37.9043

                     79                     80                     81
                      A                      A                      A
 Frequencies --   1311.3771              1325.4589              1329.7295
 Red. masses --      1.3390                 1.3848                 1.3820
 Frc consts  --      1.3567                 1.4334                 1.4397
 IR Inten    --      2.9079                 3.5643                15.7259

                     82                     83                     84
                      A                      A                      A
 Frequencies --   1349.5005              1349.7575              1367.2510
 Red. masses --      1.4236                 1.4171                 1.6490
 Frc consts  --      1.5275                 1.5211                 1.8162
 IR Inten    --      0.8524                22.2683                44.6374

                     85                     86                     87
                      A                      A                      A
 Frequencies --   1369.9014              1387.4986              1392.6128
 Red. masses --      1.4634                 1.3036                 1.3491
 Frc consts  --      1.6180                 1.4786                 1.5415
 IR Inten    --     12.6101                 2.7393                32.8637

                     88                     89                     90
                      A                      A                      A
 Frequencies --   1403.8179              1405.6675              1410.4156
 Red. masses --      1.2395                 1.2699                 2.0621
 Frc consts  --      1.4392                 1.4784                 2.4169
 IR Inten    --     16.3599                24.8497               103.9936

                     91                     92                     93
                      A                      A                      A
 Frequencies --   1414.5628              1456.5254              1463.8992
 Red. masses --      1.5874                 1.5361                 1.4713
 Frc consts  --      1.8714                 1.9201                 1.8577
 IR Inten    --     43.6410                10.7587                10.0206

                     94                     95                     96
                      A                      A                      A
 Frequencies --   1468.5839              1473.7816              1474.8161
 Red. masses --      1.0611                 1.0973                 1.0763
 Frc consts  --      1.3483                 1.4043                 1.3793
 IR Inten    --      3.0879                 4.4833                 1.5208

                     97                     98                     99
                      A                      A                      A
 Frequencies --   1482.7315              1483.5907              1487.4831
 Red. masses --      2.9989                 1.1011                 1.1143
 Frc consts  --      3.8845                 1.4279                 1.4527
 IR Inten    --      3.2186                 0.1576                 2.3135

                    100                    101                    102
                      A                      A                      A
 Frequencies --   1489.6508              1492.8947              1497.8407
 Red. masses --      1.0776                 1.0948                 1.1282
 Frc consts  --      1.4089                 1.4376                 1.4913
 IR Inten    --      4.6274                 7.5872                 8.5301

                    103                    104                    105
                      A                      A                      A
 Frequencies --   1501.7389              1503.0390              1511.5089
 Red. masses --      1.0948                 1.0758                 1.1235
 Frc consts  --      1.4547                 1.4319                 1.5124
 IR Inten    --      7.9355                 8.0674                30.5947

                    106                    107                    108
                      A                      A                      A
 Frequencies --   1514.8792              1526.5343              1842.8754
 Red. masses --      1.1118                 1.1020                10.8663
 Frc consts  --      1.5032                 1.5131                21.7433
 IR Inten    --     12.4214                 4.4031               514.0305

                    109                    110                    111
                      A                      A                      A
 Frequencies --   3009.5104              3041.6307              3054.5188
 Red. masses --      1.0710                 1.0807                 1.0602
 Frc consts  --      5.7153                 5.8908                 5.8282
 IR Inten    --     92.5144                16.7178                15.3185

                    112                    113                    114
                      A                      A                      A
 Frequencies --   3059.1818              3067.8101              3069.8514
 Red. masses --      1.0630                 1.0350                 1.0358
 Frc consts  --      5.8611                 5.7392                 5.7513
 IR Inten    --     60.7133                 8.6073                34.1158

                    115                    116                    117
                      A                      A                      A
 Frequencies --   3070.8419              3072.3832              3077.6346
 Red. masses --      1.0824                 1.0372                 1.0368
 Frc consts  --      6.0138                 5.7683                 5.7859
 IR Inten    --     38.1829                27.3162                15.9231

                    118                    119                    120
                      A                      A                      A
 Frequencies --   3093.1563              3097.6661              3104.9562
 Red. masses --      1.0617                 1.0633                 1.1046
 Frc consts  --      5.9849                 6.0114                 6.2742
 IR Inten    --     19.9655                29.2569                31.5449

                    121                    122                    123
                      A                      A                      A
 Frequencies --   3114.4340              3122.2062              3143.4867
 Red. masses --      1.1018                 1.0928                 1.1038
 Frc consts  --      6.2966                 6.2764                 6.4263
 IR Inten    --     35.2792                47.4328                12.8752

                    124                    125                    126
                      A                      A                      A
 Frequencies --   3144.4394              3146.6228              3148.9607
 Red. masses --      1.1028                 1.1027                 1.1028
 Frc consts  --      6.4243                 6.4325                 6.4427
 IR Inten    --     27.3014                22.5681                25.7897

                    127                    128                    129
                      A                      A                      A
 Frequencies --   3153.8779              3154.4021              3157.7253
 Red. masses --      1.1035                 1.1067                 1.1015
 Frc consts  --      6.4672                 6.4878                 6.4713
 IR Inten    --      6.8175                38.3728                14.1317

                    130                    131                    132
                      A                      A                      A
 Frequencies --   3162.6512              3166.9272              3173.6621
 Red. masses --      1.1017                 1.1029                 1.1024
 Frc consts  --      6.4927                 6.5170                 6.5418
 IR Inten    --     38.9363                18.4639                14.6651

                    133                    134                    135
                      A                      A                      A
 Frequencies --   3562.9897              3810.5740              3876.7960
 Red. masses --      1.0742                 1.0650                 1.0666
 Frc consts  --      8.0342                 9.1110                 9.4446
 IR Inten    --     20.1640               149.5519                71.0941

 - Thermochemistry -
 -------------------
 Temperature   298.150 Kelvin.  Pressure   1.00000 Atm.
 Atom     1 has atomic number  8 and mass  15.99491

 Molecular mass:   287.19708 amu.
 Principal axes and moments of inertia in atomic units:
                           1         2         3
     Eigenvalues --  3628.635419500.119989963.45862
           X            0.99994  -0.00831  -0.00647
           Y            0.00788   0.99797  -0.06316
           Z            0.00698   0.06311   0.99798
 This molecule is an asymmetric top.
 Rotational symmetry number  1.
 Warning -- assumption of classical behavior for rotation
           may cause significant error
 Rotational temperatures (Kelvin)      0.02387     0.00912     0.00869
 Rotational constants (GHZ):           0.49736     0.18997     0.18114
 Zero-point vibrational energy    1091448.7 (Joules/Mol)
                                  260.86251 (Kcal/Mol)
 Warning -- explicit consideration of  37 degrees of freedom as
           vibrations may cause significant error
 Vibrational temperatures:     33.47    36.71    56.64    72.33    87.58
          (Kelvin)            104.97   130.98   142.04   175.72   191.73
                              245.63   293.53   311.54   317.56   366.76
                              380.75   392.31   404.42   419.81   427.75
                              437.07   454.39   466.71   487.21   489.31
                              560.10   573.09   591.92   618.64   639.32
                              674.38   721.21   807.82   816.25   839.97
                              846.87   849.78   920.28   966.72  1018.21
                             1077.65  1176.49  1195.81  1225.07  1264.26
                             1275.70  1299.37  1331.96  1344.66  1355.44
                             1367.17  1377.28  1397.38  1413.41  1426.72
                             1448.69  1458.88  1461.10  1528.42  1544.76
                             1560.85  1589.39  1604.81  1612.36  1617.84
                             1665.60  1722.47  1726.44  1732.34  1750.53
                             1763.47  1767.69  1786.05  1807.71  1827.38
                             1849.63  1850.81  1861.02  1886.78  1907.04
                             1913.18  1941.63  1942.00  1967.17  1970.98
                             1996.30  2003.66  2019.78  2022.44  2029.27
                             2035.24  2095.62  2106.22  2112.96  2120.44
                             2121.93  2133.32  2134.56  2140.16  2143.28
                             2147.94  2155.06  2160.67  2162.54  2174.72
                             2179.57  2196.34  2651.49  4330.01  4376.23
                             4394.77  4401.48  4413.89  4416.83  4418.26
                             4420.47  4428.03  4450.36  4456.85  4467.34
                             4480.98  4492.16  4522.78  4524.15  4527.29
                             4530.65  4537.73  4538.48  4543.26  4550.35
                             4556.50  4566.19  5126.35  5482.57  5577.84

 Zero-point correction=                           0.415711 (Hartree/Particle)
 Thermal correction to Energy=                    0.438023
 Thermal correction to Enthalpy=                  0.438967
 Thermal correction to Gibbs Free Energy=         0.362924
 Sum of electronic and zero-point Energies=           -959.556336
 Sum of electronic and thermal Energies=              -959.534025
 Sum of electronic and thermal Enthalpies=            -959.533080
 Sum of electronic and thermal Free Energies=         -959.609124

                     E (Thermal)             CV                S
                      KCal/Mol        Cal/Mol-Kelvin    Cal/Mol-Kelvin
 Total                  274.863             84.899            160.047
 Electronic               0.000              0.000              1.377
 Translational            0.889              2.981             42.863
 Rotational               0.889              2.981             34.195
 Vibrational            273.086             78.938             81.611
 Vibration     1          0.593              1.985              6.334
 Vibration     2          0.593              1.985              6.151
 Vibration     3          0.594              1.981              5.291
 Vibration     4          0.595              1.977              4.807
 Vibration     5          0.597              1.973              4.429
 Vibration     6          0.599              1.967              4.072
 Vibration     7          0.602              1.956              3.638
 Vibration     8          0.604              1.950              3.479
 Vibration     9          0.610              1.931              3.066
 Vibration    10          0.613              1.920              2.898
 Vibration    11          0.626              1.879              2.428
 Vibration    12          0.640              1.834              2.097
 Vibration    13          0.645              1.816              1.988
 Vibration    14          0.647              1.810              1.953
 Vibration    15          0.665              1.754              1.696
 Vibration    16          0.671              1.738              1.631
 Vibration    17          0.676              1.724              1.579
 Vibration    18          0.681              1.709              1.527
 Vibration    19          0.687              1.689              1.464
 Vibration    20          0.691              1.679              1.432
 Vibration    21          0.695              1.667              1.396
 Vibration    22          0.703              1.643              1.332
 Vibration    23          0.709              1.627              1.288
 Vibration    24          0.719              1.598              1.219
 Vibration    25          0.720              1.595              1.212
 Vibration    26          0.757              1.493              1.003
 Vibration    27          0.765              1.474              0.969
 Vibration    28          0.775              1.445              0.922
 Vibration    29          0.791              1.405              0.859
 Vibration    30          0.804              1.373              0.813
 Vibration    31          0.826              1.319              0.741
 Vibration    32          0.857              1.247              0.655
 Vibration    33          0.917              1.115              0.521
 Vibration    34          0.923              1.102              0.509
 Vibration    35          0.941              1.066              0.478
 Vibration    36          0.946              1.056              0.470
 Vibration    37          0.948              1.052              0.466

 Optimization completed.
    -- Stationary point found.
 Normal termination of Gaussian 16 at Tue May  4 01:05:43 2021.
