 Gaussian 16, Revision A.03,
 Gaussian 16:  ES64L-G16RevA.03 25-Dec-2016

 -----------------------------------------------------
 # opt freq m062x/6-311g(d,p) scrf=(solvent=water,pcm)
 -----------------------------------------------------

 -------------------
 Title Card Required
 -------------------
 Symbolic Z-matrix:
 Charge =  0 Multiplicity = 2

 SCF Done:  E(UM062X) =  -957.768513774     A.U. after   15 cycles
 SCF Done:  E(UM062X) =  -957.777211186     A.U. after   14 cycles
 SCF Done:  E(UM062X) =  -957.781648566     A.U. after   14 cycles
 SCF Done:  E(UM062X) =  -957.784771068     A.U. after   16 cycles
 SCF Done:  E(UM062X) =  -957.777155897     A.U. after   17 cycles
 SCF Done:  E(UM062X) =  -957.790441910     A.U. after   15 cycles
 SCF Done:  E(UM062X) =  -957.478329409     A.U. after   24 cycles
 SCF Done:  E(UM062X) =  -957.790045594     A.U. after   15 cycles
 SCF Done:  E(UM062X) =  -957.792394862     A.U. after   13 cycles
 SCF Done:  E(UM062X) =  -957.793966948     A.U. after   14 cycles
 SCF Done:  E(UM062X) =  -957.796543760     A.U. after   12 cycles
 SCF Done:  E(UM062X) =  -957.796611354     A.U. after   13 cycles
 SCF Done:  E(UM062X) =  -957.796612446     A.U. after    9 cycles
 SCF Done:  E(UM062X) =  -957.796612804     A.U. after   10 cycles
 SCF Done:  E(UM062X) =  -957.796613001     A.U. after   12 cycles
 SCF Done:  E(UM062X) =  -957.796613543     A.U. after   10 cycles
 SCF Done:  E(UM062X) =  -957.796613629     A.U. after    8 cycles
 SCF Done:  E(UM062X) =  -957.796613678     A.U. after    7 cycles
 SCF Done:  E(UM062X) =  -957.796613679     A.U. after    8 cycles
 Optimization completed.
    -- Stationary point found.
 Normal termination of Gaussian 16 at Fri Dec 25 07:19:50 2020.

 ----------------------------------------------------------------------
 #N Geom=AllCheck Guess=TCheck SCRF=Check GenChk UM062X/6-311G(d,p) Fre
 q
 ----------------------------------------------------------------------

 Structure from the checkpoint file:  "Tem_Ser_CA-H.chk"
 -------------------
 Title Card Required
 -------------------
 Charge =  0 Multiplicity = 2

                         Standard orientation:
 ---------------------------------------------------------------------
 Center     Atomic      Atomic             Coordinates (Angstroms)
 Number     Number       Type             X           Y           Z
 ---------------------------------------------------------------------
      1          8           0        5.238199    0.087753   -0.480578
      2          1           0        5.688838    0.834884   -0.075631
      3          6           0        1.674169    1.236339    0.168301
      4          7           0        1.071692   -0.093114   -0.150020
      5          8           0       -0.192047   -0.184388   -0.032833
      6          6           0        3.126908    1.270644   -0.316503
      7          6           0        3.922095    0.026285    0.050117
      8          6           0        3.256042   -1.180792   -0.580634
      9          6           0        1.811491   -1.391492   -0.120753
     10          6           0        1.105639   -2.344657   -1.085795
     11          6           0        0.866945    2.301687   -0.576357
     12          6           0        1.741828   -1.964199    1.302345
     13          6           0        1.573242    1.483538    1.680444
     14          1           0        3.599906    2.164805    0.101145
     15          1           0        3.147601    1.365589   -1.407381
     16          1           0        3.824950   -2.085440   -0.351853
     17          1           0        3.279391   -1.040770   -1.666677
     18          1           0        1.687003   -3.265998   -1.157783
     19          1           0        1.033533   -1.897302   -2.079070
     20          1           0        0.104356   -2.585408   -0.731299
     21          1           0        0.797579    2.054845   -1.637577
     22          1           0        1.375166    3.262442   -0.472787
     23          1           0       -0.137264    2.396287   -0.164188
     24          1           0        3.970897   -0.090527    1.139476
     25          1           0        0.702631   -1.984941    1.635100
     26          1           0        2.128237   -2.985458    1.295981
     27          1           0        2.328593   -1.384678    2.015359
     28          1           0        1.879430    2.509613    1.894365
     29          1           0        0.540361    1.357140    2.011077
     30          1           0        2.209276    0.811953    2.257212
     31          8           0       -2.220381    1.461632    0.839246
     32          8           0       -3.287210   -1.405396    1.145821
     33          8           0       -5.215429   -0.365784    0.702682
     34          7           0       -4.202340    0.100092   -1.958686
     35          6           0       -3.355626    0.007833   -0.778678
     36          6           0       -2.912043    1.425570   -0.389035
     37          6           0       -4.067690   -0.598634    0.419992
     38          1           0       -2.469764   -0.589856   -0.999694
     39          1           0       -2.311085    1.825716   -1.213425
     40          1           0       -3.803365    2.049342   -0.278072
     41          1           0       -5.109394    0.463227   -1.676090
     42          1           0       -4.373933   -0.826180   -2.335947
     43          1           0       -1.423036    0.920525    0.713694
     44          1           0       -3.798432   -1.711931    1.909644
 ---------------------------------------------------------------------

 SCF Done:  E(UM062X) =  -957.796613679     A.U. after    1 cycles

 The electronic state is 2-A.
 Alpha  occ. eigenvalues --  -19.66983 -19.63892 -19.61939 -19.61682 -19.60965
 Alpha  occ. eigenvalues --  -14.85082 -14.73102 -10.67628 -10.59824 -10.59695
 Alpha  occ. eigenvalues --  -10.59397 -10.58551 -10.57732 -10.54090 -10.54038
 Alpha  occ. eigenvalues --  -10.53423 -10.53212 -10.52981 -10.52877  -1.24588
 Alpha  occ. eigenvalues --   -1.24348  -1.15091  -1.14742  -1.14225  -1.00396
 Alpha  occ. eigenvalues --   -0.98888  -0.93363  -0.86599  -0.83530  -0.82801
 Alpha  occ. eigenvalues --   -0.79633  -0.78623  -0.78463  -0.75699  -0.69581
 Alpha  occ. eigenvalues --   -0.69332  -0.67511  -0.62640  -0.61256  -0.59704
 Alpha  occ. eigenvalues --   -0.59213  -0.58418  -0.57686  -0.57139  -0.56403
 Alpha  occ. eigenvalues --   -0.55177  -0.53945  -0.53142  -0.51684  -0.51441
 Alpha  occ. eigenvalues --   -0.50367  -0.50223  -0.48832  -0.48478  -0.47897
 Alpha  occ. eigenvalues --   -0.47248  -0.46475  -0.46147  -0.45489  -0.44873
 Alpha  occ. eigenvalues --   -0.44418  -0.43832  -0.43382  -0.41853  -0.41206
 Alpha  occ. eigenvalues --   -0.40536  -0.40363  -0.40201  -0.39975  -0.38202
 Alpha  occ. eigenvalues --   -0.36832  -0.35422  -0.34971  -0.34597  -0.32077
 Alpha  occ. eigenvalues --   -0.27795
 Alpha virt. eigenvalues --    0.04662   0.06405   0.07547   0.08392   0.08698
 Alpha virt. eigenvalues --    0.09339   0.09681   0.10378   0.10984   0.11674
 Alpha virt. eigenvalues --    0.12301   0.13668   0.14457   0.15135   0.15667

  Beta  occ. eigenvalues --  -19.66982 -19.62915 -19.61938 -19.61681 -19.60964
  Beta  occ. eigenvalues --  -14.84217 -14.73102 -10.67628 -10.59856 -10.59725
  Beta  occ. eigenvalues --  -10.59398 -10.58550 -10.57730 -10.54087 -10.54036
  Beta  occ. eigenvalues --  -10.53386 -10.53175 -10.52967 -10.52863  -1.24351
  Beta  occ. eigenvalues --   -1.21671  -1.15088  -1.14740  -1.14212  -1.00395
  Beta  occ. eigenvalues --   -0.97597  -0.93157  -0.85924  -0.83522  -0.81282
  Beta  occ. eigenvalues --   -0.79391  -0.78545  -0.78377  -0.75690  -0.69266
  Beta  occ. eigenvalues --   -0.68800  -0.67484  -0.62074  -0.61168  -0.59093
  Beta  occ. eigenvalues --   -0.59016  -0.58315  -0.56971  -0.56413  -0.55179
  Beta  occ. eigenvalues --   -0.53857  -0.53418  -0.52604  -0.51446  -0.51370
  Beta  occ. eigenvalues --   -0.50296  -0.49956  -0.48526  -0.47915  -0.47520
  Beta  occ. eigenvalues --   -0.46831  -0.46312  -0.45952  -0.45474  -0.44050
  Beta  occ. eigenvalues --   -0.43968  -0.43592  -0.42622  -0.41619  -0.40792
  Beta  occ. eigenvalues --   -0.40375  -0.40041  -0.39854  -0.38575  -0.37653
  Beta  occ. eigenvalues --   -0.36813  -0.35296  -0.34733  -0.33558  -0.32070
  Beta virt. eigenvalues --   -0.02936   0.04669   0.06429   0.07608   0.08379
  Beta virt. eigenvalues --    0.08721   0.09371   0.09697   0.10498   0.11019
  Beta virt. eigenvalues --    0.11713   0.12313   0.13709   0.14443   0.15171

 Mulliken charges and spin densities:
               1          2
     1  O   -0.458316   0.000091
     2  H    0.280216   0.000034
     3  C   -0.133307  -0.015516
     4  N   -0.060847   0.503930
     5  O   -0.377797   0.449775
     6  C   -0.258867   0.007096
     7  C    0.018969  -0.003343
     8  C   -0.253967   0.006957
     9  C   -0.116916  -0.016213
    10  C   -0.322952   0.006679
    11  C   -0.320630   0.007405
    12  C   -0.318682   0.031789
    13  C   -0.313541   0.030355
    14  H    0.175542  -0.001324
    15  H    0.168671  -0.000528
    16  H    0.176101  -0.001362
    17  H    0.168887  -0.000519
    18  H    0.152796  -0.001263
    19  H    0.151444  -0.000168
    20  H    0.156915  -0.000660
    21  H    0.154657  -0.000336
    22  H    0.156509  -0.001471
    23  H    0.132070  -0.000909
    24  H    0.158449  -0.000528
    25  H    0.157881  -0.003202
    26  H    0.158967   0.002195
    27  H    0.145270  -0.001074
    28  H    0.161354   0.001962
    29  H    0.154291  -0.002478
    30  H    0.147406  -0.001191
    31  O   -0.462923   0.000258
    32  O   -0.361096   0.000104
    33  O   -0.419802   0.000153
    34  N   -0.517150  -0.000022
    35  C   -0.221124   0.000590
    36  C   -0.054428   0.001109
    37  C    0.448857   0.000024
    38  H    0.201323  -0.000096
    39  H    0.145181  -0.000150
    40  H    0.147382   0.000401
    41  H    0.228001   0.000043
    42  H    0.242151   0.000003
    43  H    0.287923   0.001400
    44  H    0.295135   0.000003
 Sum of Mulliken charges =   0.00000   1.00000

 Dipole moment (field-independent basis, Debye):
    X=              6.2398    Y=             -1.3066    Z=              0.7955  Tot=              6.4246
 Quadrupole moment (field-independent basis, Debye-Ang):
   XX=           -126.6258   YY=           -108.5172   ZZ=           -116.7409
   XY=             16.6937   XZ=             11.1475   YZ=             -1.7883

  Exact polarizability: 227.991  -1.673 207.204   1.481  -2.673 194.498
 Approx polarizability: 206.532  -3.912 184.813  -0.387  -1.052 181.376

                      1                      2                      3
                      A                      A                      A
 Frequencies --      8.6141                19.1355                28.9487
 Red. masses --      5.0792                 4.3647                 5.8523
 Frc consts  --      0.0002                 0.0009                 0.0029

 IR Inten    --      0.5469                 1.4573                 0.7537

                      4                      5                      6
                      A                      A                      A
 Frequencies --     51.0870                59.8296                61.8866
 Red. masses --      6.0624                 7.3279                 6.4549
 Frc consts  --      0.0093                 0.0155                 0.0146

 IR Inten    --      0.4611                 1.5616                 0.3421

                      7                      8                      9
                      A                      A                      A
 Frequencies --     80.0745               122.0866               128.2862
 Red. masses --      4.8377                 2.9749                 2.6697
 Frc consts  --      0.0183                 0.0261                 0.0259

 IR Inten    --      6.9299                 3.6261                 1.5092

                     10                     11                     12
                      A                      A                      A
 Frequencies --    163.7831               173.1306               192.9544
 Red. masses --      4.7203                 4.0365                 1.0827
 Frc consts  --      0.0746                 0.0713                 0.0238

 IR Inten    --      0.3352                 1.7612                 0.1555

                     13                     14                     15
                      A                      A                      A
 Frequencies --    206.7333               222.9853               243.3675
 Red. masses --      2.9766                 3.1455                 1.1197
 Frc consts  --      0.0750                 0.0921                 0.0391

 IR Inten    --      0.4287                 3.3160                 0.1357

                     16                     17                     18
                      A                      A                      A
 Frequencies --    262.5986               267.2252               281.8316
 Red. masses --      1.8907                 1.2212                 1.6530
 Frc consts  --      0.0768                 0.0514                 0.0774

 IR Inten    --     45.2506                 2.1464                29.4770

                     19                     20                     21
                      A                      A                      A
 Frequencies --    288.7563               294.6630               299.2618
 Red. masses --      1.6897                 1.2647                 1.5398
 Frc consts  --      0.0830                 0.0647                 0.0812

 IR Inten    --     33.8244                11.2584               129.4056

                     22                     23                     24
                      A                      A                      A
 Frequencies --    305.5431               313.9505               320.8129
 Red. masses --      1.6447                 2.8999                 2.7373
 Frc consts  --      0.0905                 0.1684                 0.1660

 IR Inten    --     18.6323                 3.8161                10.8563

                     25                     26                     27
                      A                      A                      A
 Frequencies --    323.5384               342.6239               385.4184
 Red. masses --      2.3176                 2.8841                 2.8283
 Frc consts  --      0.1429                 0.1995                 0.2475

 IR Inten    --      6.6139                18.0075                 4.3365

                     28                     29                     30
                      A                      A                      A
 Frequencies --    407.8328               417.3711               426.7428
 Red. masses --      3.7199                 3.7165                 4.1117
 Frc consts  --      0.3645                 0.3814                 0.4412

 IR Inten    --     12.3848                 6.3359                23.0839

                     31                     32                     33
                      A                      A                      A
 Frequencies --    432.1235               470.7775               495.5490
 Red. masses --      3.6960                 3.0704                 2.2089
 Frc consts  --      0.4066                 0.4009                 0.3196

 IR Inten    --     11.3842                 3.2091                 3.1116

                     34                     35                     36
                      A                      A                      A
 Frequencies --    521.6844               564.4457               589.5199
 Red. masses --      4.4538                 2.8393                 3.6471
 Frc consts  --      0.7142                 0.5330                 0.7468

 IR Inten    --     29.3866                 3.8969                 2.8489

                     37                     38                     39
                      A                      A                      A
 Frequencies --    590.6863               608.5788               654.7574
 Red. masses --      2.9918                 1.2283                 3.3630
 Frc consts  --      0.6150                 0.2680                 0.8495

 IR Inten    --     29.0014               157.1421                44.1777

                     40                     41                     42
                      A                      A                      A
 Frequencies --    708.5503               720.2375               786.0045
 Red. masses --      2.1775                 1.3779                 3.3697
 Frc consts  --      0.6441                 0.4211                 1.2266

 IR Inten    --     43.2135               242.3880                25.1829

                     43                     44                     45
                      A                      A                      A
 Frequencies --    820.8575               831.1188               876.0208
 Red. masses --      3.1947                 2.5261                 2.5674
 Frc consts  --      1.2683                 1.0281                 1.1608

 IR Inten    --     50.8608                 4.0641                 0.7376

                     46                     47                     48
                      A                      A                      A
 Frequencies --    886.6830               923.2821               927.9793
 Red. masses --      1.5824                 1.5604                 2.3062
 Frc consts  --      0.7330                 0.7837                 1.1701

 IR Inten    --      4.0056               232.5654                22.5975

                     49                     50                     51
                      A                      A                      A
 Frequencies --    950.8359               958.3565               971.4728
 Red. masses --      1.4917                 1.4659                 1.6725
 Frc consts  --      0.7946                 0.7932                 0.9300

 IR Inten    --      2.5107                 3.2050                 1.5110

                     52                     53                     54
                      A                      A                      A
 Frequencies --    992.4805              1000.5707              1013.7928
 Red. masses --      1.6654                 1.7285                 1.4178
 Frc consts  --      0.9665                 1.0196                 0.8585

 IR Inten    --      4.3551                 6.0177                 1.9670

                     55                     56                     57
                      A                      A                      A
 Frequencies --   1020.4402              1060.9317              1067.8773
 Red. masses --      1.3287                 1.5731                 2.2881
 Frc consts  --      0.8152                 1.0433                 1.5373

 IR Inten    --      3.1596                 1.9299                35.3797

                     58                     59                     60
                      A                      A                      A
 Frequencies --   1079.6857              1105.0528              1115.2375
 Red. masses --      2.3271                 1.8056                 2.3195
 Frc consts  --      1.5983                 1.2991                 1.6997

 IR Inten    --      1.3780                52.5269                72.9288

                     61                     62                     63
                      A                      A                      A
 Frequencies --   1121.1363              1126.7437              1150.1809
 Red. masses --      1.8768                 4.8905                 1.8015
 Frc consts  --      1.3899                 3.6581                 1.4042

 IR Inten    --      1.2963               145.5119                14.5688

                     64                     65                     66
                      A                      A                      A
 Frequencies --   1186.5106              1196.4684              1201.1331
 Red. masses --      2.0355                 2.2177                 1.6768
 Frc consts  --      1.6883                 1.8705                 1.4254

 IR Inten    --    262.2265                35.1326               117.2595

                     67                     68                     69
                      A                      A                      A
 Frequencies --   1214.6193              1226.6723              1255.2861
 Red. masses --      2.4840                 2.6869                 2.0461
 Frc consts  --      2.1591                 2.3821                 1.8996

 IR Inten    --     60.2603                25.5616                30.3872

                     70                     71                     72
                      A                      A                      A
 Frequencies --   1269.9488              1280.7112              1285.6173
 Red. masses --      1.7375                 1.4444                 2.4752
 Frc consts  --      1.6510                 1.3959                 2.4104

 IR Inten    --     26.1310                23.7605                41.4962

                     73                     74                     75
                      A                      A                      A
 Frequencies --   1291.7361              1319.8845              1325.7361
 Red. masses --      1.7032                 1.3187                 1.3630
 Frc consts  --      1.6744                 1.3535                 1.4115

 IR Inten    --     38.2926                 9.6670                 1.6619

                     76                     77                     78
                      A                      A                      A
 Frequencies --   1350.6742              1366.9203              1379.8319
 Red. masses --      1.5064                 1.6577                 1.3617
 Frc consts  --      1.6192                 1.8249                 1.5275

 IR Inten    --     10.1553                48.5367                18.1540

                     79                     80                     81
                      A                      A                      A
 Frequencies --   1388.2242              1392.2145              1401.0287
 Red. masses --      1.4942                 1.3098                 1.3044
 Frc consts  --      1.6966                 1.4958                 1.5085

 IR Inten    --     36.1881                 4.9254                36.6213

                     82                     83                     84
                      A                      A                      A
 Frequencies --   1407.7901              1414.9177              1417.9214
 Red. masses --      1.2677                 1.3535                 1.4162
 Frc consts  --      1.4803                 1.5965                 1.6776

 IR Inten    --     16.0100                47.3960                 8.4542

                     85                     86                     87
                      A                      A                      A
 Frequencies --   1456.9596              1458.1883              1469.8025
 Red. masses --      1.8157                 1.5243                 1.0795
 Frc consts  --      2.2709                 1.9096                 1.3740

 IR Inten    --     62.1303                11.0957                11.3245

                     88                     89                     90
                      A                      A                      A
 Frequencies --   1474.3440              1476.7279              1480.2599
 Red. masses --      1.1175                 1.0993                 1.0600
 Frc consts  --      1.4312                 1.4124                 1.3685

 IR Inten    --     17.1901                11.8840                13.7873

                     91                     92                     93
                      A                      A                      A
 Frequencies --   1484.5967              1486.1345              1489.5838
 Red. masses --      1.4347                 1.1308                 1.5371
 Frc consts  --      1.8630                 1.4715                 2.0095

 IR Inten    --      1.9743                 4.1607                15.4387

                     94                     95                     96
                      A                      A                      A
 Frequencies --   1493.8418              1498.9784              1500.9289
 Red. masses --      1.1692                 1.1097                 1.0961
 Frc consts  --      1.5373                 1.4691                 1.4548

 IR Inten    --      3.5104                16.2442                 1.6028

                     97                     98                     99
                      A                      A                      A
 Frequencies --   1502.8743              1506.6916              1514.9877
 Red. masses --      1.1048                 1.0865                 1.2207
 Frc consts  --      1.4703                 1.4532                 1.6507

 IR Inten    --      5.8597                27.1791                33.1145

                    100                    101                    102
                      A                      A                      A
 Frequencies --   1654.9667              1843.0925              3044.4974
 Red. masses --      1.0979                10.3827                 1.0813
 Frc consts  --      1.7717                20.7804                 5.9052

 IR Inten    --     54.8048               508.4383                19.1162

                    103                    104                    105
                      A                      A                      A
 Frequencies --   3047.4677              3057.3822              3064.0199
 Red. masses --      1.0605                 1.0602                 1.0621
 Frc consts  --      5.8030                 5.8388                 5.8749

 IR Inten    --     65.0967                16.8531                46.6371

                    106                    107                    108
                      A                      A                      A
 Frequencies --   3070.2301              3071.4843              3073.3292
 Red. masses --      1.0351                 1.0363                 1.0363
 Frc consts  --      5.7485                 5.7601                 5.7673

 IR Inten    --      2.2993                52.7761                30.3299

                    109                    110                    111
                      A                      A                      A
 Frequencies --   3075.4786              3103.9820              3107.4336
 Red. masses --      1.0372                 1.1014                 1.1046
 Frc consts  --      5.7803                 6.2520                 6.2840

 IR Inten    --      3.8121                35.5625                29.0081

                    112                    113                    114
                      A                      A                      A
 Frequencies --   3118.6599              3128.5226              3145.7736
 Red. masses --      1.1026                 1.0904                 1.1033
 Frc consts  --      6.3183                 6.2882                 6.4329

 IR Inten    --     29.0851                19.5956                 8.6860

                    115                    116                    117
                      A                      A                      A
 Frequencies --   3147.0017              3149.3873              3150.3436
 Red. masses --      1.1036                 1.1032                 1.1030
 Frc consts  --      6.4396                 6.4468                 6.4495

 IR Inten    --     13.9560                38.1363                34.9095

                    118                    119                    120
                      A                      A                      A
 Frequencies --   3157.2038              3167.7279              3168.6691
 Red. masses --      1.1033                 1.1017                 1.1021
 Frc consts  --      6.4796                 6.5133                 6.5194

 IR Inten    --     18.5704                19.7088                25.6377

                    121                    122                    123
                      A                      A                      A
 Frequencies --   3170.1372              3521.0996              3600.3460
 Red. masses --      1.1020                 1.0512                 1.0918
 Frc consts  --      6.5251                 7.6788                 8.3383

 IR Inten    --     14.7191                 6.8688                14.0986

                    124                    125                    126
                      A                      A                      A
 Frequencies --   3678.6835              3799.0214              3877.5747
 Red. masses --      1.0665                 1.0647                 1.0666
 Frc consts  --      8.5034                 9.0536                 9.4485

 IR Inten    --    997.3460               125.6269                73.1156

 - Thermochemistry -
 -------------------
 Temperature   298.150 Kelvin.  Pressure   1.00000 Atm.
 Atom     1 has atomic number  8 and mass  15.99491

 Molecular mass:   277.17635 amu.
 Principal axes and moments of inertia in atomic units:
                           1         2         3
     Eigenvalues --  2526.34254********************
           X            0.99996  -0.00214   0.00915
           Y            0.00211   0.99999   0.00268
           Z           -0.00915  -0.00266   0.99995
 This molecule is an asymmetric top.
 Rotational symmetry number  1.
 Warning -- assumption of classical behavior for rotation
           may cause significant error
 Rotational temperatures (Kelvin)      0.03428     0.00846     0.00783
 Rotational constants (GHZ):           0.71437     0.17630     0.16323
 Zero-point vibrational energy    1010288.1 (Joules/Mol)
                                  241.46466 (Kcal/Mol)
 Warning -- explicit consideration of  38 degrees of freedom as
           vibrations may cause significant error
 Vibrational temperatures:     12.39    27.53    41.65    73.50    86.08
          (Kelvin)             89.04   115.21   175.66   184.58   235.65
                              249.10   277.62   297.44   320.83   350.15
                              377.82   384.48   405.49   415.46   423.95
                              430.57   439.61   451.70   461.58   465.50
                              492.96   554.53   586.78   600.50   613.99
                              621.73   677.34   712.98   750.59   812.11
                              848.19   849.87   875.61   942.05  1019.45
                             1036.26  1130.89  1181.03  1195.79  1260.40
                             1275.74  1328.40  1335.16  1368.04  1378.86
                             1397.73  1427.96  1439.60  1458.62  1468.19
                             1526.44  1536.44  1553.43  1589.92  1604.58
                             1613.07  1621.13  1654.85  1707.12  1721.45
                             1728.16  1747.57  1764.91  1806.08  1827.17
                             1842.66  1849.72  1858.52  1899.02  1907.44
                             1943.32  1966.69  1985.27  1997.35  2003.09
                             2015.77  2025.50  2035.75  2040.07  2096.24
                             2098.01  2114.72  2121.25  2124.68  2129.76
                             2136.00  2138.22  2143.18  2149.31  2156.70
                             2159.50  2162.30  2167.79  2179.73  2381.13
                             2651.80  4380.35  4384.63  4398.89  4408.44
                             4417.38  4419.18  4421.84  4424.93  4465.94
                             4470.90  4487.06  4501.25  4526.07  4527.83
                             4531.27  4532.64  4542.51  4557.65  4559.01
                             4561.12  5066.08  5180.09  5292.81  5465.94
                             5578.97

 Zero-point correction=                           0.384798 (Hartree/Particle)
 Thermal correction to Energy=                    0.407343
 Thermal correction to Enthalpy=                  0.408287
 Thermal correction to Gibbs Free Energy=         0.330507
 Sum of electronic and zero-point Energies=           -957.411815
 Sum of electronic and thermal Energies=              -957.389271
 Sum of electronic and thermal Enthalpies=            -957.388327
 Sum of electronic and thermal Free Energies=         -957.466107

                     E (Thermal)             CV                S
                      KCal/Mol        Cal/Mol-Kelvin    Cal/Mol-Kelvin
 Total                  255.611             83.970            163.702
 Electronic               0.000              0.000              1.377
 Translational            0.889              2.981             42.757
 Rotational               0.889              2.981             34.013
 Vibrational            253.834             78.008             85.555
 Vibration     1          0.593              1.987              8.307
 Vibration     2          0.593              1.986              6.722
 Vibration     3          0.593              1.984              5.900
 Vibration     4          0.595              1.977              4.775
 Vibration     5          0.597              1.973              4.463
 Vibration     6          0.597              1.973              4.396
 Vibration     7          0.600              1.963              3.889
 Vibration     8          0.610              1.931              3.067
 Vibration     9          0.611              1.925              2.972
 Vibration    10          0.623              1.887              2.506
 Vibration    11          0.627              1.876              2.401
 Vibration    12          0.635              1.850              2.199
 Vibration    13          0.641              1.830              2.072
 Vibration    14          0.649              1.806              1.935
 Vibration    15          0.659              1.774              1.778
 Vibration    16          0.670              1.741              1.644
 Vibration    17          0.672              1.733              1.614
 Vibration    18          0.681              1.707              1.523
 Vibration    19          0.685              1.695              1.481
 Vibration    20          0.689              1.684              1.447
 Vibration    21          0.692              1.675              1.421
 Vibration    22          0.696              1.663              1.386
 Vibration    23          0.702              1.647              1.341
 Vibration    24          0.706              1.634              1.306
 Vibration    25          0.708              1.628              1.292
 Vibration    26          0.722              1.590              1.200
 Vibration    27          0.754              1.501              1.018
 Vibration    28          0.772              1.453              0.934
 Vibration    29          0.780              1.433              0.901
 Vibration    30          0.788              1.412              0.869
 Vibration    31          0.793              1.400              0.852
 Vibration    32          0.828              1.315              0.735
 Vibration    33          0.851              1.260              0.669
 Vibration    34          0.877              1.202              0.606
 Vibration    35          0.920              1.108              0.515
 Vibration    36          0.947              1.054              0.468
 Vibration    37          0.948              1.052              0.466
 Vibration    38          0.967              1.014              0.435

                           ! Non-Optimized Parameters !
 Normal termination of Gaussian 16 at Fri Dec 25 09:17:01 2020.
