 Gaussian 16, Revision A.03,
 Gaussian 16:  ES64L-G16RevA.03 25-Dec-2016

 -----------------------------------------------------
 # opt freq 6-311g(d,p) scrf=(solvent=water,pcm) m062x
 -----------------------------------------------------

 -------------------
 Title Card Required
 -------------------
 Symbolic Z-matrix:
 Charge =  0 Multiplicity = 2

 SCF Done:  E(UM062X) =  -957.754907475     A.U. after   15 cycles
 SCF Done:  E(UM062X) =  -957.767359213     A.U. after   17 cycles
 SCF Done:  E(UM062X) =  -957.767424373     A.U. after   15 cycles
 SCF Done:  E(UM062X) =  -957.768196375     A.U. after   11 cycles
 SCF Done:  E(UM062X) =  -957.773503715     A.U. after   12 cycles
 SCF Done:  E(UM062X) =  -957.779042165     A.U. after   12 cycles
 SCF Done:  E(UM062X) =  -957.782887779     A.U. after   13 cycles
 SCF Done:  E(UM062X) =  -957.783968581     A.U. after   14 cycles
 SCF Done:  E(UM062X) =  -957.784694883     A.U. after   13 cycles
 SCF Done:  E(UM062X) =  -957.786631269     A.U. after   14 cycles
 SCF Done:  E(UM062X) =  -957.791190243     A.U. after   12 cycles
 SCF Done:  E(UM062X) =  -957.791190689     A.U. after   10 cycles
 SCF Done:  E(UM062X) =  -957.791191471     A.U. after   11 cycles
 SCF Done:  E(UM062X) =  -957.791193528     A.U. after    8 cycles
 SCF Done:  E(UM062X) =  -957.791197686     A.U. after   11 cycles
 SCF Done:  E(UM062X) =  -957.791198372     A.U. after    8 cycles
 SCF Done:  E(UM062X) =  -957.791198925     A.U. after   10 cycles
 SCF Done:  E(UM062X) =  -957.791199012     A.U. after   10 cycles
 SCF Done:  E(UM062X) =  -957.791199057     A.U. after    8 cycles
 Optimization completed.
    -- Stationary point found.
 Normal termination of Gaussian 16 at Tue Apr 27 09:41:24 2021.

 ----------------------------------------------------------------------
 #N Geom=AllCheck Guess=TCheck SCRF=Check GenChk UM062X/6-311G(d,p) Fre
 q
 ----------------------------------------------------------------------

 Structure from the checkpoint file:  "Tem_Ser_Cb_5.chk"
 -------------------
 Title Card Required
 -------------------
 Charge =  0 Multiplicity = 2

                         Standard orientation:
 ---------------------------------------------------------------------
 Center     Atomic      Atomic             Coordinates (Angstroms)
 Number     Number       Type             X           Y           Z
 ---------------------------------------------------------------------
      1          8           0        5.088332   -0.805303    0.391631
      2          1           0        5.580695   -0.217185    0.972194
      3          6           0        1.989835    1.359546   -0.000073
      4          7           0        1.160860    0.263729   -0.588253
      5          8           0       -0.040666    0.569816   -0.872751
      6          6           0        3.467241    0.955306   -0.008332
      7          6           0        3.712036   -0.463407    0.483595
      8          6           0        2.961798   -1.425036   -0.416587
      9          6           0        1.448413   -1.193832   -0.426345
     10          6           0        0.830259   -1.920001   -1.621446
     11          6           0        1.797249    2.597933   -0.876044
     12          6           0        0.784315   -1.700621    0.862286
     13          6           0        1.491138    1.661879    1.420827
     14          1           0        4.018544    1.674992    0.604856
     15          1           0        3.861273    1.020858   -1.028142
     16          1           0        3.152524   -2.455438   -0.106193
     17          1           0        3.357936   -1.306238   -1.431056
     18          1           0        1.111607   -2.974338   -1.577535
     19          1           0        1.199351   -1.497711   -2.558265
     20          1           0       -0.255631   -1.842268   -1.595844
     21          1           0        2.041030    2.370363   -1.915711
     22          1           0        2.463595    3.388162   -0.524231
     23          1           0        0.768791    2.952359   -0.823389
     24          1           0        3.375620   -0.573576    1.521825
     25          1           0       -0.289521   -1.507312    0.820772
     26          1           0        0.933598   -2.780375    0.936904
     27          1           0        1.200336   -1.239457    1.758542
     28          1           0        1.982420    2.566160    1.786837
     29          1           0        0.412990    1.833711    1.405586
     30          1           0        1.709138    0.854048    2.120188
     31          8           0       -4.500798    1.089077   -1.299448
     32          8           0       -4.864438   -1.258168    0.501265
     33          8           0       -2.715261   -1.696266    0.074537
     34          7           0       -2.044316    0.770492    1.426272
     35          6           0       -3.326586    0.532118    0.791719
     36          6           0       -3.370825    1.365812   -0.498586
     37          6           0       -3.571875   -0.923733    0.420600
     38          1           0       -4.136371    0.848142    1.454666
     39          1           0       -3.307805    2.422132   -0.220475
     40          1           0       -2.492809    1.112383   -1.097087
     41          1           0       -1.307836    0.457976    0.795391
     42          1           0       -1.961115    0.232613    2.282603
     43          1           0       -5.289709    1.325955   -0.802518
     44          1           0       -4.959810   -2.174551    0.202392
 ---------------------------------------------------------------------

 SCF Done:  E(UM062X) =  -957.791199057     A.U. after    1 cycles

 The electronic state is 2-A.
 Alpha  occ. eigenvalues --  -19.66991 -19.62671 -19.62155 -19.61936 -19.61807
 Alpha  occ. eigenvalues --  -14.84149 -14.72875 -10.67751 -10.59287 -10.59195
 Alpha  occ. eigenvalues --  -10.59184 -10.58921 -10.58135 -10.53823 -10.53771
 Alpha  occ. eigenvalues --  -10.52902 -10.52709 -10.52655 -10.52487  -1.24438
 Alpha  occ. eigenvalues --   -1.23516  -1.15233  -1.14931  -1.14810  -1.00421
 Alpha  occ. eigenvalues --   -0.98244  -0.92885  -0.86178  -0.83787  -0.82204
 Alpha  occ. eigenvalues --   -0.79186  -0.78251  -0.78074  -0.76167  -0.69172
 Alpha  occ. eigenvalues --   -0.68760  -0.67807  -0.61819  -0.61220  -0.59732
 Alpha  occ. eigenvalues --   -0.59074  -0.58568  -0.57331  -0.56796  -0.55869
 Alpha  occ. eigenvalues --   -0.55281  -0.54365  -0.52779  -0.51674  -0.51428
 Alpha  occ. eigenvalues --   -0.50039  -0.49765  -0.48931  -0.48214  -0.47553
 Alpha  occ. eigenvalues --   -0.47414  -0.46435  -0.45673  -0.45570  -0.44524
 Alpha  occ. eigenvalues --   -0.43986  -0.43469  -0.43044  -0.41529  -0.40869
 Alpha  occ. eigenvalues --   -0.40567  -0.40344  -0.39849  -0.39753  -0.37923
 Alpha  occ. eigenvalues --   -0.36975  -0.35595  -0.34763  -0.33945  -0.31967
 Alpha  occ. eigenvalues --   -0.26872
 Alpha virt. eigenvalues --    0.04237   0.06698   0.07568   0.08134   0.08903
 Alpha virt. eigenvalues --    0.09248   0.10001   0.10112   0.10761   0.11065
 Alpha virt. eigenvalues --    0.13030   0.13836   0.14302   0.14934   0.15639

  Beta  occ. eigenvalues --  -19.66991 -19.62155 -19.61936 -19.61807 -19.61670
  Beta  occ. eigenvalues --  -14.83311 -14.72858 -10.67751 -10.59317 -10.59226
  Beta  occ. eigenvalues --  -10.59186 -10.58921 -10.58136 -10.53821 -10.53769
  Beta  occ. eigenvalues --  -10.52865 -10.52672 -10.52642 -10.52474  -1.24438
  Beta  occ. eigenvalues --   -1.20584  -1.15233  -1.14927  -1.14809  -1.00377
  Beta  occ. eigenvalues --   -0.97016  -0.92694  -0.85554  -0.83762  -0.80626
  Beta  occ. eigenvalues --   -0.78954  -0.78207  -0.77965  -0.76164  -0.68919
  Beta  occ. eigenvalues --   -0.68214  -0.67792  -0.61345  -0.61183  -0.59469
  Beta  occ. eigenvalues --   -0.58697  -0.58462  -0.56374  -0.56041  -0.55273
  Beta  occ. eigenvalues --   -0.54343  -0.53034  -0.52292  -0.51535  -0.51131
  Beta  occ. eigenvalues --   -0.49960  -0.49568  -0.48882  -0.47536  -0.47246
  Beta  occ. eigenvalues --   -0.46900  -0.46309  -0.45510  -0.45344  -0.43633
  Beta  occ. eigenvalues --   -0.43552  -0.43269  -0.42246  -0.41331  -0.40654
  Beta  occ. eigenvalues --   -0.40517  -0.39953  -0.39589  -0.38151  -0.37080
  Beta  occ. eigenvalues --   -0.36919  -0.35583  -0.34635  -0.32705  -0.31775
  Beta virt. eigenvalues --   -0.01931   0.04249   0.06749   0.07590   0.08133
  Beta virt. eigenvalues --    0.08937   0.09273   0.10009   0.10142   0.10838
  Beta virt. eigenvalues --    0.11117   0.13097   0.13858   0.14311   0.14946

 Mulliken charges and spin densities:
               1          2
     1  O   -0.459898   0.000079
     2  H    0.279234   0.000034
     3  C   -0.106376  -0.014326
     4  N   -0.085105   0.483193
     5  O   -0.354125   0.468690
     6  C   -0.259059   0.006943
     7  C    0.019957  -0.003224
     8  C   -0.254552   0.006936
     9  C   -0.103124  -0.014673
    10  C   -0.327244   0.006112
    11  C   -0.323234   0.006097
    12  C   -0.341591   0.027813
    13  C   -0.335230   0.028113
    14  H    0.172740  -0.001357
    15  H    0.165290  -0.000554
    16  H    0.173033  -0.001314
    17  H    0.166386  -0.000393
    18  H    0.148761  -0.001343
    19  H    0.147225  -0.000287
    20  H    0.152630  -0.001036
    21  H    0.148772  -0.000245
    22  H    0.150123  -0.001334
    23  H    0.152369  -0.001052
    24  H    0.157498  -0.000556
    25  H    0.152468  -0.001802
    26  H    0.156673   0.002517
    27  H    0.145412  -0.000958
    28  H    0.157784   0.002558
    29  H    0.148627  -0.001915
    30  H    0.145475  -0.001081
    31  O   -0.457543   0.000015
    32  O   -0.366984   0.000014
    33  O   -0.393234   0.000042
    34  N   -0.508635   0.009641
    35  C   -0.223718  -0.000200
    36  C   -0.043472   0.000230
    37  C    0.450960   0.000009
    38  H    0.193943   0.000367
    39  H    0.154274   0.000001
    40  H    0.155809  -0.001675
    41  H    0.234205  -0.000372
    42  H    0.237930   0.000292
    43  H    0.279031   0.000009
    44  H    0.296517  -0.000007
 Sum of Mulliken charges =   0.00000   1.00000

 Dipole moment (field-independent basis, Debye):
    X=              1.2661    Y=              0.6409    Z=              4.3792  Tot=              4.6034
 Quadrupole moment (field-independent basis, Debye-Ang):
   XX=            -98.8648   YY=           -113.1714   ZZ=           -117.5441
   XY=             10.8928   XZ=             -1.8715   YZ=              0.8538

  Exact polarizability: 231.250  -0.193 211.769   4.045   3.945 188.754
 Approx polarizability: 208.210  -3.840 188.364   1.730   3.832 178.230

                      1                      2                      3
                      A                      A                      A
 Frequencies --     22.6631                27.1907                32.6515
 Red. masses --      5.0005                 5.3738                 5.1185
 Frc consts  --      0.0015                 0.0023                 0.0032

 IR Inten    --      0.3344                 1.3261                 0.9248

                      4                      5                      6
                      A                      A                      A
 Frequencies --     51.2384                54.8537                67.9640
 Red. masses --      5.2094                 6.0584                 7.3289
 Frc consts  --      0.0081                 0.0107                 0.0199

 IR Inten    --      1.1427                 1.3729                 2.1417

                      7                      8                      9
                      A                      A                      A
 Frequencies --     80.1189               106.2584               125.6000
 Red. masses --      4.8142                 2.9069                 2.4841
 Frc consts  --      0.0182                 0.0193                 0.0231

 IR Inten    --      1.0784                 9.8321                 2.0713

                     10                     11                     12
                      A                      A                      A
 Frequencies --    134.7448               168.1398               199.8060
 Red. masses --      4.3944                 3.4185                 3.4343
 Frc consts  --      0.0470                 0.0569                 0.0808

 IR Inten    --      6.8174                 1.1458                 1.7471

                     13                     14                     15
                      A                      A                      A
 Frequencies --    202.9719               217.7933               259.5176
 Red. masses --      1.1628                 2.6212                 1.2314
 Frc consts  --      0.0282                 0.0733                 0.0489

 IR Inten    --      1.5227                 3.3092                 2.2036

                     16                     17                     18
                      A                      A                      A
 Frequencies --    265.4829               275.3098               287.0549
 Red. masses --      1.3042                 2.8835                 2.0117
 Frc consts  --      0.0542                 0.1288                 0.0977

 IR Inten    --      0.7596                31.4278                 6.6060

                     19                     20                     21
                      A                      A                      A
 Frequencies --    291.4011               299.6544               312.1715
 Red. masses --      1.3732                 1.8788                 2.1164
 Frc consts  --      0.0687                 0.0994                 0.1215

 IR Inten    --      0.1325                27.8899                60.8724

                     22                     23                     24
                      A                      A                      A
 Frequencies --    313.0165               318.0762               325.5978
 Red. masses --      1.3672                 1.9561                 1.6556
 Frc consts  --      0.0789                 0.1166                 0.1034

 IR Inten    --    147.1465                15.1938                 5.2898

                     25                     26                     27
                      A                      A                      A
 Frequencies --    341.0465               357.2761               374.0823
 Red. masses --      2.8003                 1.6847                 1.2215
 Frc consts  --      0.1919                 0.1267                 0.1007

 IR Inten    --      6.3666               137.2193                79.7151

                     28                     29                     30
                      A                      A                      A
 Frequencies --    389.3431               401.1770               411.4104
 Red. masses --      2.6316                 3.9011                 4.3943
 Frc consts  --      0.2350                 0.3699                 0.4382

 IR Inten    --      8.6366                23.7254                 1.2812

                     31                     32                     33
                      A                      A                      A
 Frequencies --    417.8206               426.4814               470.2005
 Red. masses --      5.0434                 2.6428                 2.9913
 Frc consts  --      0.5187                 0.2832                 0.3897

 IR Inten    --     45.3237                 6.8387                 2.6031

                     34                     35                     36
                      A                      A                      A
 Frequencies --    494.9315               529.3468               565.9931
 Red. masses --      2.1790                 4.4852                 2.8458
 Frc consts  --      0.3145                 0.7405                 0.5371

 IR Inten    --      4.1138                24.5895                 2.7684

                     37                     38                     39
                      A                      A                      A
 Frequencies --    588.0125               590.3758               597.1744
 Red. masses --      3.8774                 3.0085                 1.2165
 Frc consts  --      0.7899                 0.6178                 0.2556

 IR Inten    --     12.7171                10.5282               185.8352

                     40                     41                     42
                      A                      A                      A
 Frequencies --    661.5692               708.4775               782.2780
 Red. masses --      3.5970                 3.4749                 3.5521
 Frc consts  --      0.9276                 1.0276                 1.2807

 IR Inten    --     12.7859                23.9346                22.1384

                     43                     44                     45
                      A                      A                      A
 Frequencies --    817.6427               829.8059               876.3044
 Red. masses --      3.0347                 2.5480                 2.5493
 Frc consts  --      1.1953                 1.0337                 1.1534

 IR Inten    --     59.2886                 1.1484                 1.4415

                     46                     47                     48
                      A                      A                      A
 Frequencies --    885.9630               926.3039               927.2524
 Red. masses --      1.5909                 1.9925                 1.7076
 Frc consts  --      0.7357                 1.0073                 0.8650

 IR Inten    --      0.7190               116.3251               160.3076

                     49                     50                     51
                      A                      A                      A
 Frequencies --    953.1540               959.6496               969.9171
 Red. masses --      1.4790                 1.4628                 1.6887
 Frc consts  --      0.7917                 0.7937                 0.9360

 IR Inten    --      0.3608                 3.5706                 2.9633

                     52                     53                     54
                      A                      A                      A
 Frequencies --    993.1321               999.1436              1014.5107
 Red. masses --      1.6514                 1.8101                 1.4418
 Frc consts  --      0.9596                 1.0647                 0.8743

 IR Inten    --      3.6562                 6.7883                 2.6626

                     55                     56                     57
                      A                      A                      A
 Frequencies --   1019.3173              1061.1270              1065.0417
 Red. masses --      1.3184                 1.5884                 2.1603
 Frc consts  --      0.8071                 1.0538                 1.4438

 IR Inten    --      0.8310                 2.0328                45.8688

                     58                     59                     60
                      A                      A                      A
 Frequencies --   1079.1063              1103.8728              1113.0783
 Red. masses --      2.2759                 1.8485                 2.3047
 Frc consts  --      1.5615                 1.3271                 1.6823

 IR Inten    --      0.7729                60.3301                69.5690

                     61                     62                     63
                      A                      A                      A
 Frequencies --   1120.4995              1124.0424              1139.8229
 Red. masses --      1.8237                 3.0831                 1.5854
 Frc consts  --      1.3491                 2.2951                 1.2136

 IR Inten    --      1.2076               179.3978                24.8232

                     64                     65                     66
                      A                      A                      A
 Frequencies --   1180.6574              1195.5661              1199.4431
 Red. masses --      2.1678                 2.1684                 2.0066
 Frc consts  --      1.7804                 1.8261                 1.7009

 IR Inten    --    190.0661                88.6194               183.7134

                     67                     68                     69
                      A                      A                      A
 Frequencies --   1215.7050              1227.6767              1255.0163
 Red. masses --      2.5005                 2.6227                 2.0414
 Frc consts  --      2.1774                 2.3290                 1.8944

 IR Inten    --     29.9559                23.9653                31.7755

                     70                     71                     72
                      A                      A                      A
 Frequencies --   1268.6010              1285.0159              1287.3281
 Red. masses --      1.7568                 2.2116                 1.5081
 Frc consts  --      1.6658                 2.1517                 1.4725

 IR Inten    --     25.6043                34.8254                27.6574

                     73                     74                     75
                      A                      A                      A
 Frequencies --   1291.0666              1316.0160              1324.0546
 Red. masses --      1.7791                 1.3689                 1.3630
 Frc consts  --      1.7472                 1.3969                 1.4079

 IR Inten    --     32.8212                 6.6510                 2.1639

                     76                     77                     78
                      A                      A                      A
 Frequencies --   1348.9460              1366.0525              1373.1496
 Red. masses --      1.5294                 1.7112                 1.2952
 Frc consts  --      1.6397                 1.8814                 1.4389

 IR Inten    --      7.8805                43.0984                14.5330

                     79                     80                     81
                      A                      A                      A
 Frequencies --   1390.1908              1393.4813              1398.4930
 Red. masses --      1.5429                 1.3202                 1.3350
 Frc consts  --      1.7568                 1.5104                 1.5383

 IR Inten    --     34.1227                12.8798                40.3791

                     82                     83                     84
                      A                      A                      A
 Frequencies --   1410.0505              1412.0909              1416.1672
 Red. masses --      1.2705                 1.3530                 1.4410
 Frc consts  --      1.4883                 1.5895                 1.7027

 IR Inten    --      6.9012                42.0142                27.1113

                     85                     86                     87
                      A                      A                      A
 Frequencies --   1423.7215              1451.0363              1456.3007
 Red. masses --      1.2285                 1.7730                 1.5749
 Frc consts  --      1.4671                 2.1995                 1.9679

 IR Inten    --     20.1988                67.5038                 8.6575

                     88                     89                     90
                      A                      A                      A
 Frequencies --   1469.8254              1475.6958              1477.3751
 Red. masses --      1.0535                 1.0698                 1.0585
 Frc consts  --      1.3410                 1.3726                 1.3612

 IR Inten    --      2.0363                 2.9425                 4.5992

                     91                     92                     93
                      A                      A                      A
 Frequencies --   1481.6673              1487.7981              1492.0720
 Red. masses --      3.4908                 1.0682                 1.1116
 Frc consts  --      4.5152                 1.3932                 1.4580

 IR Inten    --      5.1739                 0.4671                 2.0990

                     94                     95                     96
                      A                      A                      A
 Frequencies --   1494.9977              1497.6873              1505.4630
 Red. masses --      1.0698                 1.1496                 1.0672
 Frc consts  --      1.4087                 1.5193                 1.4251

 IR Inten    --      1.5670                12.6781                14.9228

                     97                     98                     99
                      A                      A                      A
 Frequencies --   1508.7577              1513.5608              1514.2367
 Red. masses --      1.0799                 1.0841                 1.1493
 Frc consts  --      1.4483                 1.4632                 1.5526

 IR Inten    --     20.0257                 5.4220                16.2061

                    100                    101                    102
                      A                      A                      A
 Frequencies --   1662.2391              1843.2840              3042.4279
 Red. masses --      1.0921                10.4645                 1.0811
 Frc consts  --      1.7778                20.9485                 5.8960

 IR Inten    --     34.8669               554.7429                18.7135

                    103                    104                    105
                      A                      A                      A
 Frequencies --   3056.1054              3062.5406              3063.8842
 Red. masses --      1.0601                 1.0622                 1.0611
 Frc consts  --      5.8338                 5.8697                 5.8689

 IR Inten    --     16.3005                48.6467                49.7794

                    106                    107                    108
                      A                      A                      A
 Frequencies --   3066.8783              3069.4073              3071.1976
 Red. masses --      1.0352                 1.0363                 1.0365
 Frc consts  --      5.7366                 5.7525                 5.7601

 IR Inten    --      1.7753                58.7776                34.7120

                    109                    110                    111
                      A                      A                      A
 Frequencies --   3072.7433              3092.7910              3106.3355
 Red. masses --      1.0373                 1.0864                 1.1045
 Frc consts  --      5.7703                 6.1225                 6.2793

 IR Inten    --      7.1928                20.4205                32.6172

                    112                    113                    114
                      A                      A                      A
 Frequencies --   3117.6797              3131.2904              3142.1602
 Red. masses --      1.1021                 1.1051                 1.1025
 Frc consts  --      6.3117                 6.3839                 6.4134

 IR Inten    --     29.2734                23.0717                17.8258

                    115                    116                    117
                      A                      A                      A
 Frequencies --   3144.0638              3145.8551              3147.4113
 Red. masses --      1.1030                 1.1029                 1.1030
 Frc consts  --      6.4240                 6.4309                 6.4378

 IR Inten    --     15.5523                43.4863                28.0727

                    118                    119                    120
                      A                      A                      A
 Frequencies --   3154.7207              3165.8965              3168.5690
 Red. masses --      1.1037                 1.1014                 1.1024
 Frc consts  --      6.4718                 6.5040                 6.5209

 IR Inten    --     12.6549                24.9998                17.9454

                    121                    122                    123
                      A                      A                      A
 Frequencies --   3172.7787              3501.2959              3597.3913
 Red. masses --      1.1021                 1.0530                 1.0906
 Frc consts  --      6.5364                 7.6056                 8.3155

 IR Inten    --     11.2957               117.7365                56.2851

                    124                    125                    126
                      A                      A                      A
 Frequencies --   3801.8610              3876.7713              3876.8615
 Red. masses --      1.0648                 1.0664                 1.0666
 Frc consts  --      9.0679                 9.4433                 9.4448

 IR Inten    --    132.0333                82.6069                67.5154

 - Thermochemistry -
 -------------------
 Temperature   298.150 Kelvin.  Pressure   1.00000 Atm.
 Atom     1 has atomic number  8 and mass  15.99491

 Molecular mass:   277.17635 amu.
 Principal axes and moments of inertia in atomic units:
                           1         2         3
     Eigenvalues --  2611.495719763.91135**********
           X            1.00000  -0.00073  -0.00024
           Y            0.00073   0.99982   0.01901
           Z            0.00022  -0.01901   0.99982
 This molecule is an asymmetric top.
 Rotational symmetry number  1.
 Warning -- assumption of classical behavior for rotation
           may cause significant error
 Rotational temperatures (Kelvin)      0.03317     0.00887     0.00802
 Rotational constants (GHZ):           0.69108     0.18484     0.16705
 Zero-point vibrational energy    1008956.6 (Joules/Mol)
                                  241.14641 (Kcal/Mol)
 Warning -- explicit consideration of  39 degrees of freedom as
           vibrations may cause significant error
 Vibrational temperatures:     32.61    39.12    46.98    73.72    78.92
          (Kelvin)             97.79   115.27   152.88   180.71   193.87
                              241.92   287.48   292.03   313.36   373.39
                              381.97   396.11   413.01   419.26   431.14
                              449.15   450.36   457.64   468.46   490.69
                              514.04   538.22   560.18   577.20   591.93
                              601.15   613.61   676.51   712.10   761.61
                              814.34   846.02   849.42   859.20   951.85
                             1019.34  1125.52  1176.41  1193.91  1260.81
                             1274.70  1332.74  1334.11  1371.38  1380.72
                             1395.49  1428.90  1437.54  1459.65  1466.57
                             1526.73  1532.36  1552.59  1588.23  1601.47
                             1612.15  1617.25  1639.95  1698.70  1720.15
                             1725.73  1749.13  1766.35  1805.69  1825.23
                             1848.85  1852.18  1857.56  1893.45  1905.02
                             1940.83  1965.44  1975.66  2000.17  2004.91
                             2012.12  2028.75  2031.68  2037.55  2048.42
                             2087.72  2095.29  2114.75  2123.20  2125.61
                             2131.79  2140.61  2146.76  2150.97  2154.84
                             2166.03  2170.77  2177.68  2178.65  2391.59
                             2652.07  4377.38  4397.05  4406.31  4408.25
                             4412.55  4416.19  4418.77  4420.99  4449.84
                             4469.32  4485.65  4505.23  4520.87  4523.61
                             4526.18  4528.42  4538.94  4555.02  4558.86
                             4564.92  5037.58  5175.84  5470.03  5577.81
                             5577.94

 Zero-point correction=                           0.384291 (Hartree/Particle)
 Thermal correction to Energy=                    0.407003
 Thermal correction to Enthalpy=                  0.407947
 Thermal correction to Gibbs Free Energy=         0.331052
 Sum of electronic and zero-point Energies=           -957.406908
 Sum of electronic and thermal Energies=              -957.384196
 Sum of electronic and thermal Enthalpies=            -957.383252
 Sum of electronic and thermal Free Energies=         -957.460147

                     E (Thermal)             CV                S
                      KCal/Mol        Cal/Mol-Kelvin    Cal/Mol-Kelvin
 Total                  255.398             84.662            161.840
 Electronic               0.000              0.000              1.377
 Translational            0.889              2.981             42.757
 Rotational               0.889              2.981             33.976
 Vibrational            253.621             78.700             83.729
 Vibration     1          0.593              1.985              6.386
 Vibration     2          0.593              1.984              6.025
 Vibration     3          0.594              1.983              5.661
 Vibration     4          0.596              1.977              4.769
 Vibration     5          0.596              1.976              4.634
 Vibration     6          0.598              1.969              4.211
 Vibration     7          0.600              1.963              3.888
 Vibration     8          0.605              1.944              3.336
 Vibration     9          0.611              1.927              3.012
 Vibration    10          0.613              1.919              2.877
 Vibration    11          0.625              1.882              2.456
 Vibration    12          0.638              1.840              2.135
 Vibration    13          0.639              1.836              2.106
 Vibration    14          0.646              1.814              1.977
 Vibration    15          0.668              1.747              1.665
 Vibration    16          0.671              1.736              1.625
 Vibration    17          0.677              1.719              1.563
 Vibration    18          0.684              1.698              1.491
 Vibration    19          0.687              1.690              1.466
 Vibration    20          0.692              1.674              1.419
 Vibration    21          0.701              1.650              1.351
 Vibration    22          0.701              1.649              1.346
 Vibration    23          0.704              1.639              1.320
 Vibration    24          0.710              1.624              1.282
 Vibration    25          0.721              1.593              1.207
 Vibration    26          0.732              1.560              1.134
 Vibration    27          0.745              1.525              1.063
 Vibration    28          0.757              1.493              1.003
 Vibration    29          0.767              1.468              0.958
 Vibration    30          0.775              1.445              0.922
 Vibration    31          0.781              1.432              0.899
 Vibration    32          0.788              1.413              0.870
 Vibration    33          0.827              1.316              0.737
 Vibration    34          0.851              1.261              0.671
 Vibration    35          0.884              1.185              0.589
 Vibration    36          0.922              1.105              0.512
 Vibration    37          0.945              1.057              0.471
 Vibration    38          0.948              1.052              0.467
 Vibration    39          0.955              1.038              0.455

                           ! Non-Optimized Parameters !
 Normal termination of Gaussian 16 at Tue Apr 27 11:38:21 2021.
