 Gaussian 16, Revision A.03,
 Gaussian 16:  ES64L-G16RevA.03 25-Dec-2016

 -------------------------------------------------------------
 # opt=calcall freq m062x/6-311g(d,p) scrf=(solvent=water,pcm)
 -------------------------------------------------------------

 -------------------
 Title Card Required
 -------------------
 Symbolic Z-matrix:
 Charge =  0 Multiplicity = 2

 SCF Done:  E(UM062X) =  -957.759850314     A.U. after   15 cycles
 SCF Done:  E(UM062X) =  -957.767218075     A.U. after   15 cycles
 SCF Done:  E(UM062X) =  -957.775436001     A.U. after   14 cycles
 SCF Done:  E(UM062X) =  -957.777556807     A.U. after   18 cycles
 SCF Done:  E(UM062X) =  -957.775469342     A.U. after   18 cycles
 SCF Done:  E(UM062X) =  -957.784796115     A.U. after   15 cycles
 SCF Done:  E(UM062X) =  -957.631718210     A.U. after   18 cycles
 SCF Done:  E(UM062X) =  -957.780837327     A.U. after   14 cycles
 SCF Done:  E(UM062X) =  -957.784916840     A.U. after   11 cycles
 SCF Done:  E(UM062X) =  -957.525912750     A.U. after   16 cycles
 SCF Done:  E(UM062X) =  -957.746070254     A.U. after   16 cycles
 SCF Done:  E(UM062X) =  -957.785090548     A.U. after   13 cycles
 SCF Done:  E(UM062X) =  -957.788923756     A.U. after   13 cycles
 SCF Done:  E(UM062X) =  -957.790124641     A.U. after   14 cycles
 SCF Done:  E(UM062X) =  -957.790362167     A.U. after   13 cycles
 SCF Done:  E(UM062X) =  -957.790403438     A.U. after   13 cycles
 SCF Done:  E(UM062X) =  -957.790416449     A.U. after   12 cycles
 SCF Done:  E(UM062X) =  -957.790417157     A.U. after    8 cycles
 SCF Done:  E(UM062X) =  -957.790417213     A.U. after    7 cycles
 Optimization completed.
    -- Stationary point found.
 Normal termination of Gaussian 16 at Sun Apr 25 10:00:29 2021.

 ----------------------------------------------------------------------
 #N Geom=AllCheck Guess=TCheck SCRF=Check GenChk UM062X/6-311G(d,p) Fre
 q
 ----------------------------------------------------------------------

 Structure from the checkpoint file:  "Tem_Ser_Cb_2.chk"
 -------------------
 Title Card Required
 -------------------
 Charge =  0 Multiplicity = 2

                         Standard orientation:
 ---------------------------------------------------------------------
 Center     Atomic      Atomic             Coordinates (Angstroms)
 Number     Number       Type             X           Y           Z
 ---------------------------------------------------------------------
      1          8           0        2.762848    2.947013   -0.453832
      2          1           0        3.285540    3.331365    0.256276
      3          6           0        1.874774   -0.291165    1.325705
      4          7           0        1.356099   -0.963163    0.098327
      5          8           0        0.959619   -2.162472    0.243402
      6          6           0        2.025407    1.211991    1.074090
      7          6           0        2.707438    1.541057   -0.244757
      8          6           0        1.874313    0.965821   -1.372589
      9          6           0        1.706777   -0.553839   -1.293704
     10          6           0        0.546991   -0.971682   -2.196836
     11          6           0        0.847653   -0.510475    2.435636
     12          6           0        2.982844   -1.293149   -1.721606
     13          6           0        3.207562   -0.941555    1.724222
     14          1           0        2.582223    1.642645    1.912772
     15          1           0        1.032458    1.671642    1.050265
     16          1           0        2.323406    1.215035   -2.337797
     17          1           0        0.887487    1.436354   -1.321708
     18          1           0        0.742596   -0.624714   -3.213635
     19          1           0       -0.376621   -0.513310   -1.839078
     20          1           0        0.430745   -2.054544   -2.206197
     21          1           0       -0.123733   -0.131588    2.114875
     22          1           0        1.164528    0.033376    3.328065
     23          1           0        0.755636   -1.568417    2.678099
     24          1           0        3.724014    1.129514   -0.267970
     25          1           0        2.860183   -2.362365   -1.540489
     26          1           0        3.152415   -1.135490   -2.788989
     27          1           0        3.865537   -0.945719   -1.183499
     28          1           0        3.508115   -0.577576    2.709190
     29          1           0        3.081264   -2.024431    1.774700
     30          1           0        4.008900   -0.714797    1.020187
     31          8           0       -3.421881   -1.952902    0.215789
     32          8           0       -4.857452    0.478381   -0.955925
     33          8           0       -4.247481    1.378538    0.998251
     34          7           0       -1.515990    1.202679    0.063928
     35          6           0       -2.566746    0.277948   -0.328412
     36          6           0       -2.364119   -1.038960    0.432111
     37          6           0       -3.965587    0.783958   -0.010061
     38          1           0       -2.505507    0.089714   -1.402796
     39          1           0       -1.386672   -1.454040    0.166346
     40          1           0       -2.364133   -0.819048    1.503375
     41          1           0       -1.688451    1.513601    1.017149
     42          1           0       -1.538969    2.034342   -0.517546
     43          1           0       -3.402168   -2.222082   -0.707509
     44          1           0       -5.728622    0.785774   -0.664141
 ---------------------------------------------------------------------

 SCF Done:  E(UM062X) =  -957.790417213     A.U. after    1 cycles

 The electronic state is 2-A.
 Alpha  occ. eigenvalues --  -19.67205 -19.62187 -19.61954 -19.61913 -19.61634
 Alpha  occ. eigenvalues --  -14.83474 -14.73821 -10.67911 -10.58855 -10.58829
 Alpha  occ. eigenvalues --  -10.58825 -10.58822 -10.58380 -10.53304 -10.53268
 Alpha  occ. eigenvalues --  -10.52766 -10.52746 -10.52340 -10.52275  -1.24621
 Alpha  occ. eigenvalues --   -1.22846  -1.15233  -1.15013  -1.14703  -1.00954
 Alpha  occ. eigenvalues --   -0.97788  -0.92557  -0.85773  -0.84149  -0.81802
 Alpha  occ. eigenvalues --   -0.79074  -0.78037  -0.77762  -0.76199  -0.68838
 Alpha  occ. eigenvalues --   -0.68381  -0.68009  -0.61805  -0.61237  -0.59471
 Alpha  occ. eigenvalues --   -0.58752  -0.58465  -0.57157  -0.56457  -0.55760
 Alpha  occ. eigenvalues --   -0.55278  -0.54524  -0.52511  -0.51983  -0.51110
 Alpha  occ. eigenvalues --   -0.49705  -0.49514  -0.48997  -0.48266  -0.47530
 Alpha  occ. eigenvalues --   -0.47209  -0.46184  -0.46067  -0.45532  -0.44155
 Alpha  occ. eigenvalues --   -0.43727  -0.43191  -0.42770  -0.41197  -0.40763
 Alpha  occ. eigenvalues --   -0.40701  -0.40403  -0.39579  -0.39398  -0.37648
 Alpha  occ. eigenvalues --   -0.37035  -0.35961  -0.34467  -0.33332  -0.32195
 Alpha  occ. eigenvalues --   -0.26120
 Alpha virt. eigenvalues --    0.04184   0.06748   0.07485   0.08141   0.08785
 Alpha virt. eigenvalues --    0.09192   0.09776   0.10543   0.11067   0.12028
 Alpha virt. eigenvalues --    0.12822   0.13943   0.14704   0.15489   0.15761

  Beta  occ. eigenvalues --  -19.67205 -19.62188 -19.61953 -19.61634 -19.60899
  Beta  occ. eigenvalues --  -14.82639 -14.73813 -10.67911 -10.58856 -10.58856
  Beta  occ. eigenvalues --  -10.58853 -10.58828 -10.58380 -10.53302 -10.53266
  Beta  occ. eigenvalues --  -10.52730 -10.52711 -10.52327 -10.52262  -1.24621
  Beta  occ. eigenvalues --   -1.19911  -1.15234  -1.15012  -1.14699  -1.00944
  Beta  occ. eigenvalues --   -0.96578  -0.92370  -0.85189  -0.84141  -0.80177
  Beta  occ. eigenvalues --   -0.78840  -0.77926  -0.77727  -0.76197  -0.68591
  Beta  occ. eigenvalues --   -0.68049  -0.67798  -0.61758  -0.60858  -0.59444
  Beta  occ. eigenvalues --   -0.58478  -0.58233  -0.56060  -0.55689  -0.55583
  Beta  occ. eigenvalues --   -0.54551  -0.52661  -0.52156  -0.51736  -0.50797
  Beta  occ. eigenvalues --   -0.49618  -0.49270  -0.48984  -0.47837  -0.46946
  Beta  occ. eigenvalues --   -0.46680  -0.46144  -0.45815  -0.45374  -0.43343
  Beta  occ. eigenvalues --   -0.43273  -0.42947  -0.41969  -0.41008  -0.40716
  Beta  occ. eigenvalues --   -0.40692  -0.39819  -0.39234  -0.37768  -0.37222
  Beta  occ. eigenvalues --   -0.36648  -0.35801  -0.34392  -0.32033  -0.31865
  Beta virt. eigenvalues --   -0.01054   0.04238   0.06805   0.07517   0.08178
  Beta virt. eigenvalues --    0.08799   0.09209   0.09793   0.10658   0.11086
  Beta virt. eigenvalues --    0.12027   0.12863   0.13981   0.14711   0.15504

 Mulliken charges and spin densities:
               1          2
     1  O   -0.461026   0.000055
     2  H    0.277346   0.000032
     3  C   -0.093865  -0.012091
     4  N   -0.087835   0.480633
     5  O   -0.356608   0.475198
     6  C   -0.258195   0.006543
     7  C    0.018750  -0.003805
     8  C   -0.253642   0.006064
     9  C   -0.086904  -0.012342
    10  C   -0.341353   0.003592
    11  C   -0.332261   0.003923
    12  C   -0.322699   0.029952
    13  C   -0.323147   0.030004
    14  H    0.167189  -0.001513
    15  H    0.161247  -0.000593
    16  H    0.167979  -0.001507
    17  H    0.161076  -0.000669
    18  H    0.149566  -0.001282
    19  H    0.150510   0.004126
    20  H    0.151730  -0.001535
    21  H    0.139991   0.002487
    22  H    0.148045  -0.001318
    23  H    0.149845  -0.001461
    24  H    0.152916  -0.000509
    25  H    0.154232  -0.003057
    26  H    0.153610   0.001847
    27  H    0.141963  -0.001014
    28  H    0.153698   0.001948
    29  H    0.154361  -0.003092
    30  H    0.141971  -0.001015
    31  O   -0.458665  -0.000096
    32  O   -0.361268  -0.000013
    33  O   -0.412046   0.000166
    34  N   -0.491558  -0.000424
    35  C   -0.250089   0.000388
    36  C   -0.044395   0.003694
    37  C    0.464552   0.000064
    38  H    0.195997  -0.000500
    39  H    0.170105  -0.002692
    40  H    0.149044  -0.000233
    41  H    0.231440  -0.000073
    42  H    0.249766   0.000103
    43  H    0.280795   0.000020
    44  H    0.297833  -0.000006
 Sum of Mulliken charges =   0.00000   1.00000

 Dipole moment (field-independent basis, Debye):
    X=              2.5233    Y=              3.0220    Z=             -1.8909  Tot=              4.3675
 Quadrupole moment (field-independent basis, Debye-Ang):
   XX=           -105.1996   YY=           -127.5138   ZZ=           -113.0593
   XY=              0.8630   XZ=             16.9233   YZ=              7.1864

  Exact polarizability: 211.532   6.451 205.628   4.310   6.798 212.624
 Approx polarizability: 187.952   6.118 192.438   2.702   6.598 195.791

                      1                      2                      3
                      A                      A                      A
 Frequencies --     28.0732                38.7137                44.5364
 Red. masses --      6.0653                 5.3327                 5.1495
 Frc consts  --      0.0028                 0.0047                 0.0060

 IR Inten    --      2.6578                 0.0008                 1.9104

                      4                      5                      6
                      A                      A                      A
 Frequencies --     55.2558                62.7301                71.8381
 Red. masses --      6.8161                 5.3803                 5.2183
 Frc consts  --      0.0123                 0.0125                 0.0159

 IR Inten    --      1.6265                 0.0491                 0.9449

                      7                      8                      9
                      A                      A                      A
 Frequencies --     72.8381                99.7792               118.3517
 Red. masses --      5.0631                 4.6024                 3.2369
 Frc consts  --      0.0158                 0.0270                 0.0267

 IR Inten    --      0.3480                10.5981                 7.3888

                     10                     11                     12
                      A                      A                      A
 Frequencies --    134.7169               174.1703               198.3168
 Red. masses --      2.4535                 3.4111                 1.0968
 Frc consts  --      0.0262                 0.0610                 0.0254

 IR Inten    --      1.3333                 1.5801                 0.0785

                     13                     14                     15
                      A                      A                      A
 Frequencies --    207.1068               216.6438               250.0385
 Red. masses --      2.7226                 3.2793                 1.0872
 Frc consts  --      0.0688                 0.0907                 0.0400

 IR Inten    --      6.1398                 1.6995                 0.3176

                     16                     17                     18
                      A                      A                      A
 Frequencies --    265.0484               266.4530               279.9638
 Red. masses --      1.5002                 2.1243                 1.3433
 Frc consts  --      0.0621                 0.0889                 0.0620

 IR Inten    --      7.8731                42.5684                 5.1157

                     19                     20                     21
                      A                      A                      A
 Frequencies --    283.1929               293.5170               299.5103
 Red. masses --      1.3231                 1.4500                 2.1470
 Frc consts  --      0.0625                 0.0736                 0.1135

 IR Inten    --     56.3537                56.2197                22.0845

                     22                     23                     24
                      A                      A                      A
 Frequencies --    306.2769               314.3395               319.3690
 Red. masses --      1.4019                 2.7830                 1.4125
 Frc consts  --      0.0775                 0.1620                 0.0849

 IR Inten    --    132.5457                 6.8257                35.7107

                     25                     26                     27
                      A                      A                      A
 Frequencies --    325.7465               337.4839               342.3174
 Red. masses --      1.8486                 2.4607                 2.3001
 Frc consts  --      0.1156                 0.1651                 0.1588

 IR Inten    --      9.0732                33.7669                66.2313

                     28                     29                     30
                      A                      A                      A
 Frequencies --    388.5407               399.5864               411.8135
 Red. masses --      2.8788                 3.7406                 4.2915
 Frc consts  --      0.2561                 0.3519                 0.4288

 IR Inten    --      6.5932                24.7733                 0.9045

                     31                     32                     33
                      A                      A                      A
 Frequencies --    424.3412               426.2502               468.7167
 Red. masses --      4.8307                 2.7472                 3.0181
 Frc consts  --      0.5125                 0.2941                 0.3907

 IR Inten    --     41.0027                10.7828                 2.3890

                     34                     35                     36
                      A                      A                      A
 Frequencies --    496.5695               524.1770               566.7928
 Red. masses --      2.2106                 4.5546                 2.8124
 Frc consts  --      0.3212                 0.7373                 0.5323

 IR Inten    --      2.7965                23.1423                 1.7785

                     37                     38                     39
                      A                      A                      A
 Frequencies --    588.2092               590.9720               612.9994
 Red. masses --      3.0051                 4.0962                 1.2049
 Frc consts  --      0.6126                 0.8429                 0.2668

 IR Inten    --      9.9881                12.6337               181.2423

                     40                     41                     42
                      A                      A                      A
 Frequencies --    658.2750               707.8386               785.6597
 Red. masses --      3.3426                 3.4511                 3.3981
 Frc consts  --      0.8534                 1.0188                 1.2358

 IR Inten    --     13.1587                23.2068                30.6767

                     43                     44                     45
                      A                      A                      A
 Frequencies --    821.8997               830.6197               877.4468
 Red. masses --      3.1057                 2.5314                 2.5635
 Frc consts  --      1.2361                 1.0290                 1.1629

 IR Inten    --     66.1232                 1.0365                 2.2589

                     46                     47                     48
                      A                      A                      A
 Frequencies --    887.8680               912.6839               926.2675
 Red. masses --      1.5815                 1.5412                 2.2818
 Frc consts  --      0.7345                 0.7564                 1.1535

 IR Inten    --      2.2092               252.7869                23.8813

                     49                     50                     51
                      A                      A                      A
 Frequencies --    948.9047               955.4820               968.4668
 Red. masses --      1.4821                 1.4521                 1.6956
 Frc consts  --      0.7863                 0.7811                 0.9370

 IR Inten    --      1.4477                 2.7906                 1.0012

                     52                     53                     54
                      A                      A                      A
 Frequencies --    990.6981               994.8905              1013.2577
 Red. masses --      1.6603                 1.6921                 1.4458
 Frc consts  --      0.9601                 0.9868                 0.8746

 IR Inten    --      3.8767                12.1950                 2.4396

                     55                     56                     57
                      A                      A                      A
 Frequencies --   1015.3509              1060.1030              1068.1961
 Red. masses --      1.3117                 1.6268                 2.2149
 Frc consts  --      0.7967                 1.0772                 1.4890

 IR Inten    --      1.4305                 6.3135                31.8839

                     58                     59                     60
                      A                      A                      A
 Frequencies --   1083.7866              1103.9305              1113.1405
 Red. masses --      2.2972                 2.1217                 2.1859
 Frc consts  --      1.5898                 1.5234                 1.5958

 IR Inten    --      3.5084                77.7937                53.3846

                     61                     62                     63
                      A                      A                      A
 Frequencies --   1118.9580              1122.4117              1136.0404
 Red. masses --      3.7981                 1.7143                 1.3977
 Frc consts  --      2.8018                 1.2724                 1.0628

 IR Inten    --    167.6806                 4.5395                13.9832

                     64                     65                     66
                      A                      A                      A
 Frequencies --   1176.8238              1196.7009              1199.7738
 Red. masses --      2.1757                 2.1722                 2.2007
 Frc consts  --      1.7753                 1.8329                 1.8664

 IR Inten    --     77.3522               345.1326                16.8993

                     67                     68                     69
                      A                      A                      A
 Frequencies --   1217.6948              1228.4648              1256.3234
 Red. masses --      2.4692                 2.6153                 2.0855
 Frc consts  --      2.1572                 2.3254                 1.9394

 IR Inten    --     35.8678                21.6377                37.0123

                     70                     71                     72
                      A                      A                      A
 Frequencies --   1270.6216              1278.5535              1287.7358
 Red. masses --      1.7297                 1.5062                 2.5200
 Frc consts  --      1.6453                 1.4507                 2.4621

 IR Inten    --     25.0250                28.4547                28.7163

                     73                     74                     75
                      A                      A                      A
 Frequencies --   1296.2580              1317.7553              1329.0752
 Red. masses --      1.7249                 1.3600                 1.3752
 Frc consts  --      1.7077                 1.3914                 1.4313

 IR Inten    --     40.2888                 5.7865                 3.4905

                     76                     77                     78
                      A                      A                      A
 Frequencies --   1349.2942              1366.4573              1377.4751
 Red. masses --      1.5327                 1.6149                 1.2468
 Frc consts  --      1.6441                 1.7766                 1.3939

 IR Inten    --      8.0058                45.1884                 6.3835

                     79                     80                     81
                      A                      A                      A
 Frequencies --   1385.6954              1386.7411              1391.5902
 Red. masses --      1.5342                 1.3980                 1.3709
 Frc consts  --      1.7357                 1.5840                 1.5641

 IR Inten    --     45.5204                10.9886                58.3510

                     82                     83                     84
                      A                      A                      A
 Frequencies --   1402.2592              1405.3371              1417.7065
 Red. masses --      1.2370                 1.2630                 1.5583
 Frc consts  --      1.4332                 1.4697                 1.8453

 IR Inten    --     18.1826                17.5133                45.2970

                     85                     86                     87
                      A                      A                      A
 Frequencies --   1421.6902              1454.9023              1458.2481
 Red. masses --      1.2188                 1.5238                 1.8157
 Frc consts  --      1.4514                 1.9005                 2.2748

 IR Inten    --     32.9836                10.3264                69.0949

                     88                     89                     90
                      A                      A                      A
 Frequencies --   1466.8278              1473.4102              1476.5711
 Red. masses --      1.0869                 1.0586                 1.1364
 Frc consts  --      1.3779                 1.3540                 1.4599

 IR Inten    --      8.4808                 0.7561                 3.4555

                     91                     92                     93
                      A                      A                      A
 Frequencies --   1482.7497              1484.2616              1488.6674
 Red. masses --      1.9281                 1.2465                 1.0768
 Frc consts  --      2.4976                 1.6180                 1.4060

 IR Inten    --      4.7149                 1.4454                 4.3713

                     94                     95                     96
                      A                      A                      A
 Frequencies --   1490.2002              1496.8950              1499.9349
 Red. masses --      1.1435                 1.1762                 1.0827
 Frc consts  --      1.4962                 1.5528                 1.4352

 IR Inten    --      3.1820                 5.6744                 6.7233

                     97                     98                     99
                      A                      A                      A
 Frequencies --   1503.5400              1513.9218              1516.3415
 Red. masses --      1.0667                 1.1565                 1.0846
 Frc consts  --      1.4208                 1.5617                 1.4693

 IR Inten    --     22.4548                20.2926                 5.0139

                    100                    101                    102
                      A                      A                      A
 Frequencies --   1655.0451              1846.5478              3041.8123
 Red. masses --      1.0975                10.4648                 1.0822
 Frc consts  --      1.7713                21.0233                 5.8995

 IR Inten    --     65.0863               490.6824                38.9415

                    103                    104                    105
                      A                      A                      A
 Frequencies --   3059.0254              3063.9568              3066.5488
 Red. masses --      1.0599                 1.0578                 1.0578
 Frc consts  --      5.8437                 5.8511                 5.8607

 IR Inten    --     31.6756                19.7092                28.7507

                    106                    107                    108
                      A                      A                      A
 Frequencies --   3069.0740              3071.8338              3077.2616
 Red. masses --      1.0369                 1.0365                 1.0359
 Frc consts  --      5.7542                 5.7624                 5.7798

 IR Inten    --      7.6023                45.6172                45.4917

                    109                    110                    111
                      A                      A                      A
 Frequencies --   3078.5987              3102.5973              3113.6414
 Red. masses --      1.0363                 1.0893                 1.1036
 Frc consts  --      5.7869                 6.1778                 6.3039

 IR Inten    --     14.2161                 5.9391                19.0370

                    112                    113                    114
                      A                      A                      A
 Frequencies --   3120.3447              3121.9738              3144.6671
 Red. masses --      1.1046                 1.1062                 1.1026
 Frc consts  --      6.3368                 6.3524                 6.4244

 IR Inten    --     29.0717                34.2882                37.3609

                    115                    116                    117
                      A                      A                      A
 Frequencies --   3146.6255              3153.9139              3156.0092
 Red. masses --      1.1023                 1.1031                 1.1012
 Frc consts  --      6.4307                 6.4647                 6.4624

 IR Inten    --     13.4347                21.3408                16.3111

                    118                    119                    120
                      A                      A                      A
 Frequencies --   3156.6183              3164.0988              3172.5910
 Red. masses --      1.1010                 1.1012                 1.1032
 Frc consts  --      6.4638                 6.4956                 6.5421

 IR Inten    --     18.2863                41.7786                16.1311

                    121                    122                    123
                      A                      A                      A
 Frequencies --   3173.4558              3519.8263              3601.7373
 Red. masses --      1.1031                 1.0512                 1.0921
 Frc consts  --      6.5452                 7.6735                 8.3468

 IR Inten    --     20.0278                 8.9145                16.5959

                    124                    125                    126
                      A                      A                      A
 Frequencies --   3797.5474              3876.6392              3876.7264
 Red. masses --      1.0648                 1.0665                 1.0666
 Frc consts  --      9.0473                 9.4436                 9.4445

 IR Inten    --    133.1392                93.1577                50.1532

 - Thermochemistry -
 -------------------
 Temperature   298.150 Kelvin.  Pressure   1.00000 Atm.
 Atom     1 has atomic number  8 and mass  15.99491

 Molecular mass:   277.17635 amu.
 Principal axes and moments of inertia in atomic units:
                           1         2         3
     Eigenvalues --  3316.340058781.384469231.63775
           X            0.99999  -0.00103   0.00507
           Y            0.00080   0.99896   0.04564
           Z           -0.00511  -0.04563   0.99895
 This molecule is an asymmetric top.
 Rotational symmetry number  1.
 Warning -- assumption of classical behavior for rotation
           may cause significant error
 Rotational temperatures (Kelvin)      0.02612     0.00986     0.00938
 Rotational constants (GHZ):           0.54420     0.20552     0.19550
 Zero-point vibrational energy    1008468.0 (Joules/Mol)
                                  241.02965 (Kcal/Mol)
 Warning -- explicit consideration of  39 degrees of freedom as
           vibrations may cause significant error
 Vibrational temperatures:     40.39    55.70    64.08    79.50    90.25
          (Kelvin)            103.36   104.80   143.56   170.28   193.83
                              250.59   285.33   297.98   311.70   359.75
                              381.35   383.37   402.81   407.45   422.31
                              430.93   440.66   452.26   459.50   468.68
                              485.56   492.52   559.02   574.92   592.51
                              610.53   613.28   674.38   714.45   754.17
                              815.49   846.30   850.28   881.97   947.11
                             1018.42  1130.39  1182.53  1195.08  1262.45
                             1277.44  1313.15  1332.69  1365.26  1374.73
                             1393.41  1425.39  1431.43  1457.85  1460.86
                             1525.25  1536.90  1559.33  1588.31  1601.56
                             1609.93  1614.90  1634.51  1693.19  1721.79
                             1726.21  1751.99  1767.49  1807.57  1828.14
                             1839.55  1852.76  1865.03  1895.96  1912.24
                             1941.33  1966.03  1981.88  1993.71  1995.21
                             2002.19  2017.54  2021.97  2039.76  2045.50
                             2093.28  2098.09  2110.44  2119.91  2124.46
                             2133.35  2135.52  2141.86  2144.07  2153.70
                             2158.07  2163.26  2178.20  2181.68  2381.24
                             2656.77  4376.49  4401.26  4408.35  4412.08
                             4415.71  4419.68  4427.49  4429.42  4463.95
                             4479.84  4489.48  4491.82  4524.47  4527.29
                             4537.78  4540.79  4541.67  4552.43  4564.65
                             4565.90  5064.24  5182.10  5463.82  5577.62
                             5577.74

 Zero-point correction=                           0.384105 (Hartree/Particle)
 Thermal correction to Energy=                    0.406909
 Thermal correction to Enthalpy=                  0.407853
 Thermal correction to Gibbs Free Energy=         0.331552
 Sum of electronic and zero-point Energies=           -957.406312
 Sum of electronic and thermal Energies=              -957.383508
 Sum of electronic and thermal Enthalpies=            -957.382564
 Sum of electronic and thermal Free Energies=         -957.458865

                     E (Thermal)             CV                S
                      KCal/Mol        Cal/Mol-Kelvin    Cal/Mol-Kelvin
 Total                  255.339             84.928            160.589
 Electronic               0.000              0.000              1.377
 Translational            0.889              2.981             42.757
 Rotational               0.889              2.981             33.952
 Vibrational            253.562             78.966             82.502
 Vibration     1          0.593              1.984              5.961
 Vibration     2          0.594              1.981              5.324
 Vibration     3          0.595              1.980              5.046
 Vibration     4          0.596              1.975              4.620
 Vibration     5          0.597              1.972              4.369
 Vibration     6          0.598              1.967              4.102
 Vibration     7          0.599              1.967              4.075
 Vibration     8          0.604              1.949              3.459
 Vibration     9          0.609              1.934              3.127
 Vibration    10          0.613              1.919              2.878
 Vibration    11          0.627              1.874              2.390
 Vibration    12          0.637              1.842              2.149
 Vibration    13          0.641              1.830              2.069
 Vibration    14          0.645              1.816              1.987
 Vibration    15          0.663              1.763              1.730
 Vibration    16          0.671              1.737              1.628
 Vibration    17          0.672              1.735              1.619
 Vibration    18          0.680              1.711              1.534
 Vibration    19          0.682              1.705              1.514
 Vibration    20          0.688              1.686              1.454
 Vibration    21          0.692              1.675              1.420
 Vibration    22          0.697              1.662              1.382
 Vibration    23          0.702              1.646              1.339
 Vibration    24          0.705              1.637              1.313
 Vibration    25          0.710              1.624              1.281
 Vibration    26          0.718              1.601              1.224
 Vibration    27          0.721              1.591              1.201
 Vibration    28          0.757              1.495              1.006
 Vibration    29          0.766              1.471              0.964
 Vibration    30          0.776              1.445              0.920
 Vibration    31          0.786              1.417              0.877
 Vibration    32          0.788              1.413              0.871
 Vibration    33          0.826              1.319              0.741
 Vibration    34          0.852              1.258              0.667
 Vibration    35          0.879              1.196              0.600
 Vibration    36          0.923              1.103              0.510
 Vibration    37          0.945              1.057              0.470
 Vibration    38          0.948              1.051              0.465
 Vibration    39          0.972              1.004              0.428

 Optimization completed.
    -- Stationary point found.
 Normal termination of Gaussian 16 at Sun Apr 25 11:51:25 2021.
