 Gaussian 16, Revision A.03,
 Gaussian 16:  ES64L-G16RevA.03 25-Dec-2016

 -----------------------------------------------------
 # opt freq 6-311g(d,p) scrf=(solvent=water,pcm) m062x
 -----------------------------------------------------

 -------------------
 Title Card Required
 -------------------
 Symbolic Z-matrix:
 Charge =  0 Multiplicity = 2

 SCF Done:  E(UM062X) =  -957.781339430     A.U. after   15 cycles
 SCF Done:  E(UM062X) =  -957.783694770     A.U. after   16 cycles
 SCF Done:  E(UM062X) =  -957.767242871     A.U. after   17 cycles
 SCF Done:  E(UM062X) =  -957.782460795     A.U. after   14 cycles
 SCF Done:  E(UM062X) =  -957.784064853     A.U. after   13 cycles
 SCF Done:  E(UM062X) =  -957.784513730     A.U. after   13 cycles
 SCF Done:  E(UM062X) =  -957.784901113     A.U. after   13 cycles
 SCF Done:  E(UM062X) =  -957.784995288     A.U. after   13 cycles
 SCF Done:  E(UM062X) =  -957.785628983     A.U. after   14 cycles
 SCF Done:  E(UM062X) =  -957.786043774     A.U. after   13 cycles
 SCF Done:  E(UM062X) =  -957.791942171     A.U. after   12 cycles
 SCF Done:  E(UM062X) =  -957.791944164     A.U. after   10 cycles
 SCF Done:  E(UM062X) =  -957.791945736     A.U. after   11 cycles
 SCF Done:  E(UM062X) =  -957.791945991     A.U. after    8 cycles
 SCF Done:  E(UM062X) =  -957.791946153     A.U. after   10 cycles
 SCF Done:  E(UM062X) =  -957.791946257     A.U. after    8 cycles
 SCF Done:  E(UM062X) =  -957.791946383     A.U. after   10 cycles
 SCF Done:  E(UM062X) =  -957.791946479     A.U. after    7 cycles
 SCF Done:  E(UM062X) =  -957.791946531     A.U. after    6 cycles
 Optimization completed.
    -- Stationary point found.
 Normal termination of Gaussian 16 at Tue May  4 17:08:20 2021.

 ----------------------------------------------------------------------
 #N Geom=AllCheck Guess=TCheck SCRF=Check GenChk UM062X/6-311G(d,p) Fre
 q
 ----------------------------------------------------------------------

 Structure from the checkpoint file:  "Tem_Ser_Ca_6-2p3.chk"
 -------------------
 Title Card Required
 -------------------
 Charge =  0 Multiplicity = 2

                         Standard orientation:
 ---------------------------------------------------------------------
 Center     Atomic      Atomic             Coordinates (Angstroms)
 Number     Number       Type             X           Y           Z
 ---------------------------------------------------------------------
      1          8           0       -4.974209    0.715501   -0.034423
      2          1           0       -5.189413    1.574329   -0.410321
      3          6           0       -1.212269    1.191381    0.206407
      4          7           0       -0.939347   -0.249530    0.487546
      5          8           0        0.280287   -0.565146    0.651676
      6          6           0       -2.706169    1.472202    0.389875
      7          6           0       -3.602399    0.451116   -0.296641
      8          6           0       -3.310238   -0.923948    0.272556
      9          6           0       -1.853884   -1.363381    0.098122
     10          6           0       -1.564796   -2.539294    1.031626
     11          6           0       -0.403698    2.015801    1.209234
     12          6           0       -1.547617   -1.780349   -1.347708
     13          6           0       -0.731982    1.530046   -1.212416
     14          1           0       -2.911332    2.478194    0.009960
     15          1           0       -2.952877    1.464749    1.457152
     16          1           0       -3.956969   -1.668818   -0.198455
     17          1           0       -3.558115   -0.897438    1.339258
     18          1           0       -2.282192   -3.337363    0.829938
     19          1           0       -1.666132   -2.231426    2.074240
     20          1           0       -0.556634   -2.919188    0.872448
     21          1           0       -0.591102    1.671569    2.228239
     22          1           0       -0.709061    3.061595    1.130320
     23          1           0        0.662690    1.947142    0.992452
     24          1           0       -3.429804    0.458339   -1.379655
     25          1           0       -0.476336   -1.965289   -1.450430
     26          1           0       -2.084456   -2.702892   -1.578955
     27          1           0       -1.845170   -1.024290   -2.074257
     28          1           0       -0.724893    2.615105   -1.339157
     29          1           0        0.283968    1.153119   -1.339105
     30          1           0       -1.367271    1.103194   -1.988682
     31          8           0        2.908715    2.227991   -0.420916
     32          8           0        2.342237   -0.182753   -1.624945
     33          8           0        2.858067   -2.082690   -0.573827
     34          7           0        4.225739   -0.675799    1.446547
     35          6           0        3.281239    0.005761    0.573328
     36          6           0        3.876008    1.335014    0.096599
     37          6           0        2.812460   -0.882655   -0.573781
     38          1           0        2.373472    0.237277    1.138679
     39          1           0        4.318529    1.816871    0.967909
     40          1           0        4.675133    1.150423   -0.632741
     41          1           0        5.049985   -0.934714    0.909757
     42          1           0        3.816553   -1.555013    1.747562
     43          1           0        2.527601    1.813584   -1.202223
     44          1           0        2.048380   -0.805150   -2.306317
 ---------------------------------------------------------------------

 SCF Done:  E(UM062X) =  -957.791946531     A.U. after    1 cycles

 The electronic state is 2-A.
 Alpha  occ. eigenvalues --  -19.67690 -19.62449 -19.62044 -19.61784 -19.61753
 Alpha  occ. eigenvalues --  -14.83875 -14.72994 -10.68086 -10.59178 -10.59170
 Alpha  occ. eigenvalues --  -10.59093 -10.58784 -10.57819 -10.53790 -10.53758
 Alpha  occ. eigenvalues --  -10.52989 -10.52781 -10.52600 -10.52385  -1.24756
 Alpha  occ. eigenvalues --   -1.23363  -1.15409  -1.14902  -1.14525  -1.00396
 Alpha  occ. eigenvalues --   -0.98180  -0.92818  -0.86110  -0.83844  -0.82151
 Alpha  occ. eigenvalues --   -0.79183  -0.78276  -0.78003  -0.75910  -0.69127
 Alpha  occ. eigenvalues --   -0.68668  -0.68434  -0.62031  -0.61247  -0.59327
 Alpha  occ. eigenvalues --   -0.59069  -0.58647  -0.57590  -0.56835  -0.55817
 Alpha  occ. eigenvalues --   -0.54573  -0.53478  -0.52741  -0.52180  -0.51354
 Alpha  occ. eigenvalues --   -0.50641  -0.49893  -0.49595  -0.48430  -0.47804
 Alpha  occ. eigenvalues --   -0.47340  -0.46220  -0.45716  -0.44474  -0.44311
 Alpha  occ. eigenvalues --   -0.43856  -0.43468  -0.43145  -0.41501  -0.40960
 Alpha  occ. eigenvalues --   -0.40878  -0.40547  -0.39906  -0.39538  -0.37885
 Alpha  occ. eigenvalues --   -0.36725  -0.35668  -0.34509  -0.33661  -0.32443
 Alpha  occ. eigenvalues --   -0.26658
 Alpha virt. eigenvalues --    0.04021   0.06335   0.07823   0.08291   0.08694
 Alpha virt. eigenvalues --    0.09522   0.10057   0.10808   0.11337   0.11696
 Alpha virt. eigenvalues --    0.12660   0.13762   0.14478   0.15136   0.15457

  Beta  occ. eigenvalues --  -19.67681 -19.62039 -19.61784 -19.61753 -19.61428
  Beta  occ. eigenvalues --  -14.83055 -14.72994 -10.68086 -10.59207 -10.59171
  Beta  occ. eigenvalues --  -10.59122 -10.58784 -10.57820 -10.53788 -10.53755
  Beta  occ. eigenvalues --  -10.52953 -10.52745 -10.52588 -10.52374  -1.24738
  Beta  occ. eigenvalues --   -1.20441  -1.15397  -1.14898  -1.14521  -1.00395
  Beta  occ. eigenvalues --   -0.96953  -0.92631  -0.85511  -0.83842  -0.80560
  Beta  occ. eigenvalues --   -0.78963  -0.78224  -0.77903  -0.75907  -0.68877
  Beta  occ. eigenvalues --   -0.68429  -0.68124  -0.61736  -0.61076  -0.59253
  Beta  occ. eigenvalues --   -0.58678  -0.58437  -0.56665  -0.56119  -0.54536
  Beta  occ. eigenvalues --   -0.53532  -0.52954  -0.52212  -0.52097  -0.51019
  Beta  occ. eigenvalues --   -0.50624  -0.49779  -0.49365  -0.48191  -0.47150
  Beta  occ. eigenvalues --   -0.46712  -0.45997  -0.45537  -0.44268  -0.43634
  Beta  occ. eigenvalues --   -0.43388  -0.43325  -0.42195  -0.41253  -0.40927
  Beta  occ. eigenvalues --   -0.40740  -0.40021  -0.39446  -0.38055  -0.37037
  Beta  occ. eigenvalues --   -0.36686  -0.35633  -0.34461  -0.32467  -0.32153
  Beta virt. eigenvalues --   -0.01650   0.04030   0.06474   0.07879   0.08296
  Beta virt. eigenvalues --    0.08710   0.09533   0.10077   0.10878   0.11369
  Beta virt. eigenvalues --    0.11730   0.12667   0.13805   0.14499   0.15166

 Mulliken charges and spin densities:
               1          2
     1  O   -0.459790   0.000112
     2  H    0.279201   0.000044
     3  C   -0.105518  -0.014843
     4  N   -0.080720   0.472280
     5  O   -0.349966   0.481579
     6  C   -0.256897   0.008154
     7  C    0.017590  -0.003920
     8  C   -0.251785   0.007686
     9  C   -0.111803  -0.013851
    10  C   -0.323972   0.005003
    11  C   -0.329155   0.005267
    12  C   -0.322008   0.030197
    13  C   -0.327961   0.029683
    14  H    0.171620  -0.001249
    15  H    0.164463  -0.000508
    16  H    0.172953  -0.001311
    17  H    0.165745  -0.000406
    18  H    0.149723  -0.001341
    19  H    0.148174  -0.000176
    20  H    0.149545  -0.001120
    21  H    0.146874  -0.000640
    22  H    0.148995  -0.001333
    23  H    0.140849   0.000093
    24  H    0.156402  -0.000517
    25  H    0.149719  -0.002722
    26  H    0.156909   0.002088
    27  H    0.143893  -0.001100
    28  H    0.156628   0.002373
    29  H    0.137445  -0.002248
    30  H    0.142367  -0.001148
    31  O   -0.436072  -0.000072
    32  O   -0.394654   0.002326
    33  O   -0.402381   0.002282
    34  N   -0.510671   0.000171
    35  C   -0.227195   0.000909
    36  C   -0.052738  -0.000140
    37  C    0.467182  -0.000549
    38  H    0.217819  -0.000788
    39  H    0.152312   0.000002
    40  H    0.147936  -0.000018
    41  H    0.227690  -0.000045
    42  H    0.233950  -0.000034
    43  H    0.283242  -0.000045
    44  H    0.314058  -0.000125
 Sum of Mulliken charges =   0.00000   1.00000

 Dipole moment (field-independent basis, Debye):
    X=             -2.8633    Y=              0.9042    Z=             -4.3604  Tot=              5.2943
 Quadrupole moment (field-independent basis, Debye-Ang):
   XX=           -119.1687   YY=           -120.4797   ZZ=           -112.3870
   XY=             -8.0223   XZ=             -2.2122   YZ=             -1.2546

  Exact polarizability: 216.585  -4.240 218.640   9.217  -2.283 194.191
 Approx polarizability: 194.667  -5.195 197.862   6.199  -3.247 181.830

                      1                      2                      3
                      A                      A                      A
 Frequencies --     20.3535                31.4232                44.9947
 Red. masses --      5.1763                 4.7749                 4.7831
 Frc consts  --      0.0013                 0.0028                 0.0057

 IR Inten    --      0.4390                 0.6608                 1.1070

                      4                      5                      6
                      A                      A                      A
 Frequencies --     50.6182                64.4492                78.5471
 Red. masses --      5.2323                 7.7449                 5.2611
 Frc consts  --      0.0079                 0.0190                 0.0191

 IR Inten    --      0.5577                 1.0094                 0.3678

                      7                      8                      9
                      A                      A                      A
 Frequencies --     89.4969                99.1695               131.5102
 Red. masses --      6.8915                 5.4286                 2.4959
 Frc consts  --      0.0325                 0.0315                 0.0254

 IR Inten    --      1.2055                12.0290                 1.5283

                     10                     11                     12
                      A                      A                      A
 Frequencies --    164.6500               171.8060               197.5146
 Red. masses --      2.3792                 3.4210                 1.1009
 Frc consts  --      0.0380                 0.0595                 0.0253

 IR Inten    --      3.8017                 0.8493                 0.2867

                     13                     14                     15
                      A                      A                      A
 Frequencies --    206.5749               210.1249               249.7243
 Red. masses --      1.1909                 3.2260                 2.2329
 Frc consts  --      0.0299                 0.0839                 0.0820

 IR Inten    --     65.1698                 2.3097                 3.7004

                     16                     17                     18
                      A                      A                      A
 Frequencies --    252.6057               273.1234               284.2249
 Red. masses --      1.4106                 1.3150                 1.6362
 Frc consts  --      0.0530                 0.0578                 0.0779

 IR Inten    --      4.0744                 3.1922                30.8484

                     19                     20                     21
                      A                      A                      A
 Frequencies --    296.6355               298.2874               303.6320
 Red. masses --      1.5372                 1.4367                 1.4440
 Frc consts  --      0.0797                 0.0753                 0.0784

 IR Inten    --     15.3558                65.2130                72.5960

                     22                     23                     24
                      A                      A                      A
 Frequencies --    307.7403               315.1187               321.0619
 Red. masses --      4.1301                 2.8603                 3.1729
 Frc consts  --      0.2305                 0.1673                 0.1927

 IR Inten    --     19.2616                 1.9276                18.1190

                     25                     26                     27
                      A                      A                      A
 Frequencies --    328.7252               343.6041               383.4343
 Red. masses --      1.8009                 2.9296                 2.7879
 Frc consts  --      0.1147                 0.2038                 0.2415

 IR Inten    --      4.3694                 8.7546                 5.7723

                     28                     29                     30
                      A                      A                      A
 Frequencies --    401.4086               413.5147               414.9071
 Red. masses --      3.7774                 4.9217                 4.5868
 Frc consts  --      0.3586                 0.4958                 0.4652

 IR Inten    --     24.3801                16.1094                 1.4606

                     31                     32                     33
                      A                      A                      A
 Frequencies --    428.7025               465.6405               471.2375
 Red. masses --      2.7428                 1.1151                 2.7766
 Frc consts  --      0.2970                 0.1425                 0.3633

 IR Inten    --     11.5619               281.2410                18.2661

                     34                     35                     36
                      A                      A                      A
 Frequencies --    494.4206               535.5885               565.7749
 Red. masses --      2.1701                 3.7675                 2.8023
 Frc consts  --      0.3126                 0.6367                 0.5285

 IR Inten    --      4.3162                41.8695                 0.6611

                     37                     38                     39
                      A                      A                      A
 Frequencies --    577.6307               590.9755               595.5128
 Red. masses --      2.0093                 3.0382                 3.9903
 Frc consts  --      0.3950                 0.6252                 0.8337

 IR Inten    --    112.1452                14.5828                11.4840

                     40                     41                     42
                      A                      A                      A
 Frequencies --    629.8353               712.2775               740.2505
 Red. masses --      1.8831                 3.5236                 3.7507
 Frc consts  --      0.4401                 1.0533                 1.2109

 IR Inten    --    110.4280                26.2267                25.2412

                     43                     44                     45
                      A                      A                      A
 Frequencies --    816.1062               831.5929               877.0503
 Red. masses --      2.4503                 2.5332                 2.5469
 Frc consts  --      0.9615                 1.0322                 1.1543

 IR Inten    --     43.0159                 1.3587                 1.5318

                     46                     47                     48
                      A                      A                      A
 Frequencies --    886.3976               927.1983               934.9795
 Red. masses --      1.5897                 2.3199                 1.5088
 Frc consts  --      0.7359                 1.1750                 0.7771

 IR Inten    --      2.3881                25.0185               236.9743

                     49                     50                     51
                      A                      A                      A
 Frequencies --    953.2786               961.1048               973.1208
 Red. masses --      1.4841                 1.4896                 1.6439
 Frc consts  --      0.7946                 0.8107                 0.9172

 IR Inten    --      2.2583                 3.1503                 0.6004

                     52                     53                     54
                      A                      A                      A
 Frequencies --    992.5553              1011.9957              1014.5797
 Red. masses --      1.6723                 1.8192                 1.4241
 Frc consts  --      0.9707                 1.0977                 0.8637

 IR Inten    --      5.4451                 1.9409                 1.8178

                     55                     56                     57
                      A                      A                      A
 Frequencies --   1021.0250              1047.1241              1061.6308
 Red. masses --      1.3366                 2.0919                 1.5669
 Frc consts  --      0.8210                 1.3514                 1.0405

 IR Inten    --      1.6832                78.1092                 2.8366

                     58                     59                     60
                      A                      A                      A
 Frequencies --   1080.6612              1103.6319              1113.2322
 Red. masses --      2.2781                 1.8490                 3.6643
 Frc consts  --      1.5675                 1.3269                 2.6755

 IR Inten    --      1.7926                53.4007               195.7924

                     61                     62                     63
                      A                      A                      A
 Frequencies --   1114.5513              1121.6295              1163.3637
 Red. masses --      2.8007                 1.8237                 2.6181
 Frc consts  --      2.0498                 1.3517                 2.0877

 IR Inten    --     35.4593                 2.5380               209.4706

                     64                     65                     66
                      A                      A                      A
 Frequencies --   1180.0706              1198.6638              1215.0246
 Red. masses --      1.5146                 2.1659                 2.4691
 Frc consts  --      1.2427                 1.8335                 2.1476

 IR Inten    --    150.2269                35.1914                28.8285

                     67                     68                     69
                      A                      A                      A
 Frequencies --   1226.4557              1229.1403              1238.2175
 Red. masses --      1.9119                 2.5507                 1.2369
 Frc consts  --      1.6944                 2.2705                 1.1173

 IR Inten    --     45.1773                25.0109                37.2595

                     70                     71                     72
                      A                      A                      A
 Frequencies --   1257.1028              1270.1292              1286.4464
 Red. masses --      2.0934                 1.7156                 2.3905
 Frc consts  --      1.9491                 1.6307                 2.3309

 IR Inten    --     32.8724                27.2690                41.0859

                     73                     74                     75
                      A                      A                      A
 Frequencies --   1292.0031              1309.9011              1325.1778
 Red. masses --      1.7509                 1.5092                 1.3885
 Frc consts  --      1.7220                 1.5257                 1.4366

 IR Inten    --     32.8688                17.2673                 3.8998

                     76                     77                     78
                      A                      A                      A
 Frequencies --   1351.0578              1367.4800              1385.8879
 Red. masses --      1.5028                 1.6784                 1.6099
 Frc consts  --      1.6162                 1.8492                 1.8218

 IR Inten    --     12.0789                44.7552                30.8466

                     79                     80                     81
                      A                      A                      A
 Frequencies --   1390.2621              1391.5011              1398.7870
 Red. masses --      1.2832                 1.3073                 1.3283
 Frc consts  --      1.4613                 1.4914                 1.5313

 IR Inten    --      2.8658                 5.0184                36.8734

                     82                     83                     84
                      A                      A                      A
 Frequencies --   1407.5913              1411.4491              1414.5860
 Red. masses --      1.2755                 1.2830                 1.5436
 Frc consts  --      1.4890                 1.5059                 1.8199

 IR Inten    --     18.9592                12.2967                36.7761

                     85                     86                     87
                      A                      A                      A
 Frequencies --   1420.1117              1440.8799              1457.6298
 Red. masses --      1.4920                 1.3964                 1.5273
 Frc consts  --      1.7728                 1.7081                 1.9119

 IR Inten    --     28.5312                84.7248                 9.4944

                     88                     89                     90
                      A                      A                      A
 Frequencies --   1470.6440              1475.6861              1479.3145
 Red. masses --      1.0579                 1.0737                 1.0515
 Frc consts  --      1.3480                 1.3777                 1.3558

 IR Inten    --      3.1053                 1.0843                 5.0855

                     91                     92                     93
                      A                      A                      A
 Frequencies --   1484.6791              1487.6108              1491.5479
 Red. masses --      1.6172                 1.3081                 1.0804
 Frc consts  --      2.1003                 1.7055                 1.4161

 IR Inten    --      1.7575                 4.6429                 3.7928

                     94                     95                     96
                      A                      A                      A
 Frequencies --   1493.9629              1497.6322              1504.0595
 Red. masses --      1.2893                 1.1833                 1.0799
 Frc consts  --      1.6955                 1.5637                 1.4393

 IR Inten    --      6.2474                12.0887                 6.8610

                     97                     98                     99
                      A                      A                      A
 Frequencies --   1505.9739              1512.4115              1515.4005
 Red. masses --      1.0677                 1.0897                 1.1852
 Frc consts  --      1.4267                 1.4686                 1.6036

 IR Inten    --     15.4415                 5.7272                20.6084

                    100                    101                    102
                      A                      A                      A
 Frequencies --   1658.3656              1854.5706              3034.8316
 Red. masses --      1.0923                10.9719                 1.0697
 Frc consts  --      1.7699                22.2340                 5.8045

 IR Inten    --     45.5134               523.6729                76.6955

                    103                    104                    105
                      A                      A                      A
 Frequencies --   3042.6419              3054.1706              3061.9154
 Red. masses --      1.0811                 1.0601                 1.0617
 Frc consts  --      5.8966                 5.8263                 5.8644

 IR Inten    --     17.9303                19.9618                42.0615

                    106                    107                    108
                      A                      A                      A
 Frequencies --   3066.2788              3068.9195              3071.9001
 Red. masses --      1.0357                 1.0353                 1.0366
 Frc consts  --      5.7371                 5.7452                 5.7634

 IR Inten    --     31.7024                29.0155                35.1241

                    109                    110                    111
                      A                      A                      A
 Frequencies --   3075.4146              3098.7536              3104.3442
 Red. masses --      1.0373                 1.0824                 1.1045
 Frc consts  --      5.7806                 6.1236                 6.2715

 IR Inten    --     17.5586                 0.9430                32.6881

                    112                    113                    114
                      A                      A                      A
 Frequencies --   3116.4448              3139.0990              3143.5314
 Red. masses --      1.1026                 1.0961                 1.1031
 Frc consts  --      6.3094                 6.3639                 6.4222

 IR Inten    --     29.9633                29.6324                11.8448

                    115                    116                    117
                      A                      A                      A
 Frequencies --   3144.1352              3147.4187              3148.7146
 Red. masses --      1.1033                 1.1029                 1.1016
 Frc consts  --      6.4258                 6.4372                 6.4348

 IR Inten    --     24.1748                61.4453                18.8513

                    118                    119                    120
                      A                      A                      A
 Frequencies --   3159.2286              3162.0367              3167.6597
 Red. masses --      1.1021                 1.1034                 1.1026
 Frc consts  --      6.4806                 6.5002                 6.5187

 IR Inten    --      8.2682                 8.6478                16.5069

                    121                    122                    123
                      A                      A                      A
 Frequencies --   3171.5885              3519.4716              3594.5421
 Red. masses --      1.1017                 1.0522                 1.0902
 Frc consts  --      6.5290                 7.6788                 8.2994

 IR Inten    --     26.7004                 4.3773                12.2789

                    124                    125                    126
                      A                      A                      A
 Frequencies --   3804.8476              3862.7260              3878.0066
 Red. masses --      1.0652                 1.0655                 1.0666
 Frc consts  --      9.0859                 9.3667                 9.4505

 IR Inten    --    158.8343               130.6937                71.2020

 - Thermochemistry -
 -------------------
 Temperature   298.150 Kelvin.  Pressure   1.00000 Atm.
 Atom     1 has atomic number  8 and mass  15.99491

 Molecular mass:   277.17635 amu.
 Principal axes and moments of inertia in atomic units:
                           1         2         3
     Eigenvalues --  2789.638348361.669899572.96886
           X            0.99996   0.00700   0.00507
           Y           -0.00698   0.99997  -0.00394
           Z           -0.00510   0.00390   0.99998
 This molecule is an asymmetric top.
 Rotational symmetry number  1.
 Warning -- assumption of classical behavior for rotation
           may cause significant error
 Rotational temperatures (Kelvin)      0.03105     0.01036     0.00905
 Rotational constants (GHZ):           0.64694     0.21584     0.18852
 Zero-point vibrational energy    1009048.1 (Joules/Mol)
                                  241.16829 (Kcal/Mol)
 Warning -- explicit consideration of  39 degrees of freedom as
           vibrations may cause significant error
 Vibrational temperatures:     29.28    45.21    64.74    72.83    92.73
          (Kelvin)            113.01   128.77   142.68   189.21   236.89
                              247.19   284.18   297.22   302.32   359.30
                              363.44   392.96   408.94   426.79   429.17
                              436.86   442.77   453.39   461.94   472.96
                              494.37   551.68   577.54   594.96   596.96
                              616.81   669.95   678.01   711.36   770.59
                              814.02   831.08   850.28   856.81   906.19
                             1024.81  1065.06  1174.19  1196.48  1261.88
                             1275.33  1334.03  1345.23  1371.56  1382.82
                             1400.10  1428.07  1456.04  1459.75  1469.03
                             1506.58  1527.45  1554.83  1587.88  1601.69
                             1603.59  1613.77  1673.82  1697.86  1724.61
                             1748.15  1764.60  1768.46  1781.52  1808.69
                             1827.43  1850.91  1858.90  1884.66  1906.64
                             1943.87  1967.50  1993.98  2000.28  2002.06
                             2012.54  2025.21  2030.76  2035.27  2043.22
                             2073.10  2097.20  2115.93  2123.18  2128.40
                             2136.12  2140.34  2146.00  2149.48  2154.76
                             2164.01  2166.76  2176.02  2180.32  2386.02
                             2668.31  4366.45  4377.68  4394.27  4405.41
                             4411.69  4415.49  4419.78  4424.84  4458.42
                             4466.46  4483.87  4516.46  4522.84  4523.71
                             4528.43  4530.30  4545.43  4549.47  4557.56
                             4563.21  5063.73  5171.74  5474.33  5557.60
                             5579.59

 Zero-point correction=                           0.384326 (Hartree/Particle)
 Thermal correction to Energy=                    0.406937
 Thermal correction to Enthalpy=                  0.407882
 Thermal correction to Gibbs Free Energy=         0.331869
 Sum of electronic and zero-point Energies=           -957.407620
 Sum of electronic and thermal Energies=              -957.385009
 Sum of electronic and thermal Enthalpies=            -957.384065
 Sum of electronic and thermal Free Energies=         -957.460078

                     E (Thermal)             CV                S
                      KCal/Mol        Cal/Mol-Kelvin    Cal/Mol-Kelvin
 Total                  255.357             84.677            159.982
 Electronic               0.000              0.000              1.377
 Translational            0.889              2.981             42.757
 Rotational               0.889              2.981             33.767
 Vibrational            253.580             78.715             82.081
 Vibration     1          0.593              1.986              6.599
 Vibration     2          0.594              1.983              5.737
 Vibration     3          0.595              1.979              5.026
 Vibration     4          0.595              1.977              4.793
 Vibration     5          0.597              1.971              4.316
 Vibration     6          0.600              1.964              3.927
 Vibration     7          0.602              1.957              3.671
 Vibration     8          0.604              1.950              3.471
 Vibration     9          0.612              1.922              2.924
 Vibration    10          0.623              1.886              2.496
 Vibration    11          0.626              1.877              2.416
 Vibration    12          0.637              1.843              2.156
 Vibration    13          0.641              1.831              2.074
 Vibration    14          0.642              1.825              2.043
 Vibration    15          0.663              1.763              1.733
 Vibration    16          0.664              1.758              1.712
 Vibration    17          0.676              1.723              1.576
 Vibration    18          0.683              1.703              1.508
 Vibration    19          0.690              1.680              1.436
 Vibration    20          0.691              1.677              1.426
 Vibration    21          0.695              1.667              1.397
 Vibration    22          0.698              1.659              1.374
 Vibration    23          0.702              1.645              1.335
 Vibration    24          0.707              1.633              1.305
 Vibration    25          0.712              1.618              1.266
 Vibration    26          0.722              1.588              1.195
 Vibration    27          0.753              1.506              1.026
 Vibration    28          0.767              1.467              0.957
 Vibration    29          0.777              1.441              0.914
 Vibration    30          0.778              1.438              0.909
 Vibration    31          0.790              1.408              0.863
 Vibration    32          0.823              1.326              0.750
 Vibration    33          0.828              1.314              0.734
 Vibration    34          0.850              1.262              0.672
 Vibration    35          0.891              1.171              0.575
 Vibration    36          0.922              1.105              0.512
 Vibration    37          0.934              1.080              0.490
 Vibration    38          0.948              1.051              0.465
 Vibration    39          0.953              1.041              0.457

 Optimization completed.
    -- Stationary point found.
 Normal termination of Gaussian 16 at Tue May  4 18:19:24 2021.
