 Gaussian 16, Revision A.03,
 Gaussian 16:  ES64L-G16RevA.03 25-Dec-2016

 -----------------------------------------------------
 # scrf=(solvent=water,pcm) opt freq m062x/6-311g(d,p)
 -----------------------------------------------------

 -------------------
 Title Card Required
 -------------------
 Symbolic Z-matrix:
 Charge =  0 Multiplicity = 2

 SCF Done:  E(UM062X) =  -843.220713612     A.U. after   15 cycles
 SCF Done:  E(UM062X) =  -843.246024596     A.U. after   15 cycles
 SCF Done:  E(UM062X) =  -843.260338998     A.U. after   16 cycles
 SCF Done:  E(UM062X) =  -843.248867756     A.U. after   16 cycles
 SCF Done:  E(UM062X) =  -843.264422245     A.U. after   14 cycles
 SCF Done:  E(UM062X) =  -843.265928404     A.U. after   14 cycles
 SCF Done:  E(UM062X) =  -843.260824698     A.U. after   17 cycles
 SCF Done:  E(UM062X) =  -843.266581489     A.U. after   13 cycles
 SCF Done:  E(UM062X) =  -843.266604542     A.U. after   13 cycles
 SCF Done:  E(UM062X) =  -843.267381662     A.U. after   14 cycles
 SCF Done:  E(UM062X) =  -843.268974063     A.U. after   13 cycles
 SCF Done:  E(UM062X) =  -843.268982786     A.U. after   12 cycles
 SCF Done:  E(UM062X) =  -843.268984323     A.U. after    9 cycles
 SCF Done:  E(UM062X) =  -843.268985655     A.U. after   11 cycles
 SCF Done:  E(UM062X) =  -843.268985872     A.U. after   10 cycles
 SCF Done:  E(UM062X) =  -843.268986350     A.U. after    8 cycles
 SCF Done:  E(UM062X) =  -843.268986588     A.U. after   10 cycles
 SCF Done:  E(UM062X) =  -843.268986645     A.U. after    8 cycles
 SCF Done:  E(UM062X) =  -843.268986709     A.U. after    8 cycles
 Optimization completed.
    -- Stationary point found.
 Normal termination of Gaussian 16 at Mon Dec 21 20:47:33 2020.

 ----------------------------------------------------------------------
 #N Geom=AllCheck Guess=TCheck SCRF=Check GenChk UM062X/6-311G(d,p) Fre
 q
 ----------------------------------------------------------------------

 Structure from the checkpoint file:  "Tem_Gly.chk"
 -------------------
 Title Card Required
 -------------------
 Charge =  0 Multiplicity = 2

                         Standard orientation:
 ---------------------------------------------------------------------
 Center     Atomic      Atomic             Coordinates (Angstroms)
 Number     Number       Type             X           Y           Z
 ---------------------------------------------------------------------
      1          8           0       -4.497598   -0.875039   -0.269094
      2          1           0       -4.682166   -1.790942   -0.040354
      3          6           0       -0.704441   -1.101732   -0.239769
      4          7           0       -0.503460    0.377780   -0.269252
      5          8           0        0.703658    0.776584   -0.248151
      6          6           0       -2.157992   -1.433055   -0.591534
      7          6           0       -3.173162   -0.575569    0.150135
      8          6           0       -2.927106    0.880885   -0.192249
      9          6           0       -1.525344    1.368490    0.184422
     10          6           0       -1.237013    2.684524   -0.538137
     11          6           0        0.223534   -1.706431   -1.293408
     12          6           0       -1.382037    1.579012    1.698749
     13          6           0       -0.325150   -1.636669    1.149746
     14          1           0       -2.325455   -2.493996   -0.380234
     15          1           0       -2.320327   -1.280521   -1.663803
     16          1           0       -3.661375    1.513746    0.312889
     17          1           0       -3.077298    0.995995   -1.271201
     18          1           0       -2.020254    3.404186   -0.291565
     19          1           0       -1.229074    2.530936   -1.619112
     20          1           0       -0.273608    3.089448   -0.232315
     21          1           0        0.005591   -1.283164   -2.276365
     22          1           0        0.063416   -2.785800   -1.333081
     23          1           0        1.268616   -1.504927   -1.059510
     24          1           0       -3.088841   -0.731023    1.232326
     25          1           0       -0.341072    1.804837    1.937751
     26          1           0       -2.001941    2.424389    2.005029
     27          1           0       -1.692254    0.706567    2.274070
     28          1           0       -0.268877   -2.727029    1.112867
     29          1           0        0.651498   -1.249752    1.447219
     30          1           0       -1.051639   -1.363595    1.915263
     31          8           0        3.623636    1.635005   -0.500966
     32          8           0        3.589263   -0.448672   -1.312019
     33          7           0        3.311565   -1.541516    1.291215
     34          6           0        3.338851   -0.108067    1.068043
     35          6           0        3.525460    0.306207   -0.376292
     36          1           0        4.137364    0.348393    1.657276
     37          1           0        2.401071    0.349090    1.393722
     38          1           0        4.212712   -1.936171    1.039397
     39          1           0        2.645251   -1.965431    0.652113
     40          1           0        3.706669    1.842314   -1.442520
 ---------------------------------------------------------------------

 SCF Done:  E(UM062X) =  -843.268986709     A.U. after    1 cycles

 The electronic state is 2-A.
 Alpha  occ. eigenvalues --  -19.66421 -19.62551 -19.61825 -19.61412 -14.83947
 Alpha  occ. eigenvalues --  -14.72929 -10.67425 -10.59289 -10.59224 -10.59214
 Alpha  occ. eigenvalues --  -10.57185 -10.53840 -10.53817 -10.53125 -10.52979
 Alpha  occ. eigenvalues --  -10.52619 -10.52598  -1.23945  -1.23382  -1.14953
 Alpha  occ. eigenvalues --   -1.14383  -0.99769  -0.98251  -0.92916  -0.86172
 Alpha  occ. eigenvalues --   -0.82244  -0.81313  -0.79349  -0.78342  -0.78181
 Alpha  occ. eigenvalues --   -0.69185  -0.68758  -0.68646  -0.61801  -0.59585
 Alpha  occ. eigenvalues --   -0.59172  -0.58542  -0.57871  -0.57200  -0.56588
 Alpha  occ. eigenvalues --   -0.55866  -0.52877  -0.52659  -0.51337  -0.50028
 Alpha  occ. eigenvalues --   -0.49957  -0.49359  -0.48370  -0.47766  -0.47443
 Alpha  occ. eigenvalues --   -0.46224  -0.45795  -0.44566  -0.44114  -0.43701
 Alpha  occ. eigenvalues --   -0.43380  -0.43154  -0.41539  -0.40877  -0.40100
 Alpha  occ. eigenvalues --   -0.39878  -0.39635  -0.37925  -0.36668  -0.34694
 Alpha  occ. eigenvalues --   -0.33783  -0.32378  -0.26747
 Alpha virt. eigenvalues --    0.05353   0.06632   0.07800   0.08431   0.08637
 Alpha virt. eigenvalues --    0.09338   0.10242   0.10844   0.11188   0.12730
 Alpha virt. eigenvalues --    0.13622   0.14138   0.15202   0.15842   0.16073

  Beta  occ. eigenvalues --  -19.66422 -19.61824 -19.61520 -19.61412 -14.83129
  Beta  occ. eigenvalues --  -14.72929 -10.67425 -10.59318 -10.59253 -10.59215
  Beta  occ. eigenvalues --  -10.57178 -10.53837 -10.53814 -10.53090 -10.52944
  Beta  occ. eigenvalues --  -10.52607 -10.52586  -1.23925  -1.20458  -1.14949
  Beta  occ. eigenvalues --   -1.14384  -0.99762  -0.97025  -0.92731  -0.85565
  Beta  occ. eigenvalues --   -0.81378  -0.80573  -0.79131  -0.78273  -0.78101
  Beta  occ. eigenvalues --   -0.68934  -0.68641  -0.68221  -0.61329  -0.59392
  Beta  occ. eigenvalues --   -0.58661  -0.58421  -0.57852  -0.56446  -0.55847
  Beta  occ. eigenvalues --   -0.53105  -0.52608  -0.52225  -0.51034  -0.49927
  Beta  occ. eigenvalues --   -0.49734  -0.49296  -0.47906  -0.47185  -0.46931
  Beta  occ. eigenvalues --   -0.46000  -0.45614  -0.44027  -0.43556  -0.43379
  Beta  occ. eigenvalues --   -0.43301  -0.42288  -0.41306  -0.40435  -0.39745
  Beta  occ. eigenvalues --   -0.39574  -0.38094  -0.37074  -0.36638  -0.34596
  Beta  occ. eigenvalues --   -0.32387  -0.32283
  Beta virt. eigenvalues --   -0.01736   0.05425   0.06690   0.07832   0.08444
  Beta virt. eigenvalues --    0.08641   0.09333   0.10323   0.10930   0.11212
  Beta virt. eigenvalues --    0.12780   0.13641   0.14173   0.15248   0.15887

 Mulliken charges and spin densities:
               1          2
     1  O   -0.459343   0.000090
     2  H    0.279264   0.000040
     3  C   -0.109483  -0.012564
     4  N   -0.080952   0.469237
     5  O   -0.352569   0.484207
     6  C   -0.258535   0.007214
     7  C    0.019197  -0.003526
     8  C   -0.252740   0.007186
     9  C   -0.112054  -0.012959
    10  C   -0.324566   0.005094
    11  C   -0.325595   0.005060
    12  C   -0.324216   0.030112
    13  C   -0.329374   0.029201
    14  H    0.172819  -0.001359
    15  H    0.165048  -0.000505
    16  H    0.173568  -0.001333
    17  H    0.166209  -0.000370
    18  H    0.150023  -0.001327
    19  H    0.148397  -0.000135
    20  H    0.151050  -0.001167
    21  H    0.149114  -0.000013
    22  H    0.151143  -0.001317
    23  H    0.130626  -0.001077
    24  H    0.156428  -0.000539
    25  H    0.160670  -0.002802
    26  H    0.156736   0.001922
    27  H    0.143212  -0.001073
    28  H    0.160788   0.002119
    29  H    0.145656  -0.002653
    30  H    0.146908  -0.001222
    31  O   -0.374179  -0.000161
    32  O   -0.406361   0.000001
    33  N   -0.512987   0.000126
    34  C   -0.248203   0.005281
    35  C    0.412455  -0.000744
    36  H    0.187824   0.000241
    37  H    0.190761  -0.000594
    38  H    0.232253   0.000118
    39  H    0.226659   0.000119
    40  H    0.294351   0.000070
 Sum of Mulliken charges =   0.00000   1.00000

 Dipole moment (field-independent basis, Debye):
    X=             -2.5239    Y=             -0.8570    Z=              1.1292  Tot=              2.8948
 Quadrupole moment (field-independent basis, Debye-Ang):
   XX=           -106.9393   YY=            -96.1376   ZZ=           -108.1616
   XY=              8.5941   XZ=             -3.9300   YZ=             -1.6488

  Exact polarizability: 193.999   3.134 199.894   0.032   2.662 178.340
 Approx polarizability: 175.772   3.670 180.049   0.225   4.395 167.314

                      1                      2                      3
                      A                      A                      A
 Frequencies --     27.7116                34.1310                42.0834
 Red. masses --      4.5981                 4.8630                 5.2335
 Frc consts  --      0.0021                 0.0033                 0.0055

 IR Inten    --      0.4577                 1.8006                 1.7485

                      4                      5                      6
                      A                      A                      A
 Frequencies --     67.9510                78.1506                87.8269
 Red. masses --      6.9037                 4.2047                 6.7358
 Frc consts  --      0.0188                 0.0151                 0.0306

 IR Inten    --      0.0455                 3.5074                 6.1084

                      7                      8                      9
                      A                      A                      A
 Frequencies --    106.5528               129.0534               141.0686
 Red. masses --      5.8419                 2.3594                 1.5711
 Frc consts  --      0.0391                 0.0232                 0.0184

 IR Inten    --      4.8813                 1.0893                 8.7353

                     10                     11                     12
                      A                      A                      A
 Frequencies --    168.1209               193.2844               218.6667
 Red. masses --      3.2833                 1.2711                 2.6440
 Frc consts  --      0.0547                 0.0280                 0.0745

 IR Inten    --      0.2538                14.6690                 1.5719

                     13                     14                     15
                      A                      A                      A
 Frequencies --    230.7618               263.6227               265.1346
 Red. masses --      1.2508                 1.4366                 2.3481
 Frc consts  --      0.0392                 0.0588                 0.0973

 IR Inten    --     32.0738                 7.0592                18.2282

                     16                     17                     18
                      A                      A                      A
 Frequencies --    281.1159               285.4905               293.5511
 Red. masses --      1.5832                 1.6616                 1.3720
 Frc consts  --      0.0737                 0.0798                 0.0697

 IR Inten    --     16.4380                25.7067                18.8065

                     19                     20                     21
                      A                      A                      A
 Frequencies --    300.9260               309.8713               317.1938
 Red. masses --      1.9729                 1.2101                 2.7225
 Frc consts  --      0.1053                 0.0685                 0.1614

 IR Inten    --     16.2357               145.9595                 6.7442

                     22                     23                     24
                      A                      A                      A
 Frequencies --    328.2294               342.6009               386.3049
 Red. masses --      1.7386                 2.6377                 2.8041
 Frc consts  --      0.1104                 0.1824                 0.2465

 IR Inten    --      3.0567                 5.3320                 3.7531

                     25                     26                     27
                      A                      A                      A
 Frequencies --    404.7671               413.5850               428.3983
 Red. masses --      3.7658                 4.3319                 2.7061
 Frc consts  --      0.3635                 0.4366                 0.2926

 IR Inten    --     24.6434                 1.2447                 7.6684

                     28                     29                     30
                      A                      A                      A
 Frequencies --    469.6833               475.1382               492.4162
 Red. masses --      2.9952                 4.5634                 2.1976
 Frc consts  --      0.3893                 0.6070                 0.3139

 IR Inten    --      2.8727                43.8407                 4.1002

                     31                     32                     33
                      A                      A                      A
 Frequencies --    497.5371               565.4638               587.5261
 Red. masses --      1.3694                 2.8207                 3.0259
 Frc consts  --      0.1997                 0.5314                 0.6154

 IR Inten    --     82.2962                 1.8943                 6.2887

                     34                     35                     36
                      A                      A                      A
 Frequencies --    592.4077               633.5841               651.8765
 Red. masses --      3.9750                 1.5788                 4.0902
 Frc consts  --      0.8219                 0.3734                 1.0241

 IR Inten    --     21.5589               132.8432                15.2343

                     37                     38                     39
                      A                      A                      A
 Frequencies --    709.5115               829.2374               853.9990
 Red. masses --      3.4907                 2.5443                 2.6768
 Frc consts  --      1.0353                 1.0308                 1.1502

 IR Inten    --     21.5766                 1.0198               130.4072

                     40                     41                     42
                      A                      A                      A
 Frequencies --    875.7597               884.7353               923.4722
 Red. masses --      2.5454                 1.5767                 2.2141
 Frc consts  --      1.1502                 0.7272                 1.1125

 IR Inten    --      1.7292                 2.0626                34.7770

                     43                     44                     45
                      A                      A                      A
 Frequencies --    928.7377               950.1116               956.4022
 Red. masses --      1.6777                 1.4781                 1.4610
 Frc consts  --      0.8526                 0.7861                 0.7874

 IR Inten    --     10.6591                 2.1753                10.7336

                     46                     47                     48
                      A                      A                      A
 Frequencies --    963.5782               967.0175               987.6740
 Red. masses --      1.7665                 1.6931                 1.6446
 Frc consts  --      0.9664                 0.9328                 0.9452

 IR Inten    --    149.6487                 7.9465                 4.2397

                     49                     50                     51
                      A                      A                      A
 Frequencies --   1009.5370              1013.8541              1059.6228
 Red. masses --      1.4160                 1.3532                 1.5846
 Frc consts  --      0.8503                 0.8195                 1.0482

 IR Inten    --      2.9905                 2.1217                 1.8096

                     52                     53                     54
                      A                      A                      A
 Frequencies --   1080.4528              1104.1858              1112.5205
 Red. masses --      2.2633                 1.8841                 2.2049
 Frc consts  --      1.5567                 1.3535                 1.6079

 IR Inten    --      1.4514                61.2944                65.9493

                     55                     56                     57
                      A                      A                      A
 Frequencies --   1119.1556              1152.5660              1186.5102
 Red. masses --      1.8544                 3.3234                 1.5972
 Frc consts  --      1.3685                 2.6011                 1.3248

 IR Inten    --      1.5199               132.3923               129.0980

                     58                     59                     60
                      A                      A                      A
 Frequencies --   1195.7053              1200.5330              1215.4400
 Red. masses --      2.1585                 1.7008                 2.4861
 Frc consts  --      1.8183                 1.4443                 2.1639

 IR Inten    --     56.1033               152.7046                29.9281

                     61                     62                     63
                      A                      A                      A
 Frequencies --   1227.9636              1254.1115              1267.9180
 Red. masses --      2.5678                 2.1026                 1.7697
 Frc consts  --      2.2813                 1.9484                 1.6762

 IR Inten    --     21.9330                31.7943                27.5571

                     64                     65                     66
                      A                      A                      A
 Frequencies --   1283.7639              1291.3251              1324.3708
 Red. masses --      2.3964                 1.8089                 1.3591
 Frc consts  --      2.3269                 1.7772                 1.4045

 IR Inten    --     38.3856                33.9849                 2.4322

                     67                     68                     69
                      A                      A                      A
 Frequencies --   1324.5415              1346.8897              1364.9018
 Red. masses --      1.4609                 1.5404                 1.6781
 Frc consts  --      1.5101                 1.6464                 1.8419

 IR Inten    --     17.8859                 9.9552                45.2665

                     70                     71                     72
                      A                      A                      A
 Frequencies --   1387.4865              1391.3837              1397.9872
 Red. masses --      1.1955                 1.2858                 1.3301
 Frc consts  --      1.3560                 1.4666                 1.5316

 IR Inten    --      2.8281                 0.7698                37.7349

                     73                     74                     75
                      A                      A                      A
 Frequencies --   1407.6544              1409.7782              1414.7755
 Red. masses --      1.3055                 1.2416                 1.5289
 Frc consts  --      1.5242                 1.4539                 1.8031

 IR Inten    --     23.5817                22.6806                29.2793

                     76                     77                     78
                      A                      A                      A
 Frequencies --   1433.0782              1454.1351              1459.1088
 Red. masses --      2.0340                 1.5523                 1.1570
 Frc consts  --      2.4612                 1.9340                 1.4513

 IR Inten    --     63.9721                10.1576                35.8541

                     79                     80                     81
                      A                      A                      A
 Frequencies --   1469.5663              1476.0839              1477.0820
 Red. masses --      1.0591                 1.0755                 1.0596
 Frc consts  --      1.3476                 1.3807                 1.3621

 IR Inten    --      6.5593                 0.9904                 5.5273

                     82                     83                     84
                      A                      A                      A
 Frequencies --   1481.6567              1485.9125              1490.0523
 Red. masses --      3.1850                 1.1108                 1.0933
 Frc consts  --      4.1196                 1.4450                 1.4302

 IR Inten    --      4.4242                 1.1789                 1.5283

                     85                     86                     87
                      A                      A                      A
 Frequencies --   1493.3115              1497.2809              1501.7046
 Red. masses --      1.1043                 1.1444                 1.0822
 Frc consts  --      1.4508                 1.5116                 1.4379

 IR Inten    --      4.9594                11.6595                10.4806

                     88                     89                     90
                      A                      A                      A
 Frequencies --   1506.6656              1515.5368              1663.6103
 Red. masses --      1.0785                 1.1221                 1.0908
 Frc consts  --      1.4425                 1.5185                 1.7787

 IR Inten    --     18.1346                21.0376                42.5958

                     91                     92                     93
                      A                      A                      A
 Frequencies --   1847.9372              3045.9400              3054.9279
 Red. masses --     10.5776                 1.0802                 1.0602
 Frc consts  --     21.2820                 5.9046                 5.8295

 IR Inten    --    509.3313                14.2470                19.7283

                     94                     95                     96
                      A                      A                      A
 Frequencies --   3062.4719              3068.3993              3069.7763
 Red. masses --      1.0625                 1.0357                 1.0361
 Frc consts  --      5.8713                 5.7451                 5.7529

 IR Inten    --     46.9087                 8.5080                49.2970

                     97                     98                     99
                      A                      A                      A
 Frequencies --   3072.2226              3074.4299              3085.6690
 Red. masses --      1.0367                 1.0376                 1.0609
 Frc consts  --      5.7651                 5.7783                 5.9514

 IR Inten    --     40.9711                 5.1251                15.3008

                    100                    101                    102
                      A                      A                      A
 Frequencies --   3104.5917              3116.7174              3129.6079
 Red. masses --      1.1048                 1.1025                 1.1033
 Frc consts  --      6.2738                 6.3102                 6.3666

 IR Inten    --     31.8886                31.2201                 5.9087

                    103                    104                    105
                      A                      A                      A
 Frequencies --   3143.3516              3144.6586              3146.5559
 Red. masses --      1.1029                 1.1034                 1.1022
 Frc consts  --      6.4206                 6.4285                 6.4298

 IR Inten    --     10.4168                25.8600                51.4714

                    106                    107                    108
                      A                      A                      A
 Frequencies --   3148.0945              3154.6847              3166.0124
 Red. masses --      1.1029                 1.1030                 1.1008
 Frc consts  --      6.4397                 6.4678                 6.5008

 IR Inten    --     28.8365                 8.0916                29.8977

                    109                    110                    111
                      A                      A                      A
 Frequencies --   3168.1656              3170.5331              3529.0108
 Red. masses --      1.1018                 1.1021                 1.0509
 Frc consts  --      6.5156                 6.5275                 7.7112

 IR Inten    --      8.6665                20.6596                 3.6897

                    112                    113                    114
                      A                      A                      A
 Frequencies --   3599.2933              3815.8276              3877.1126
 Red. masses --      1.0915                 1.0649                 1.0666
 Frc consts  --      8.3314                 9.1353                 9.4466

 IR Inten    --     15.8778               131.8862                72.0806

 - Thermochemistry -
 -------------------
 Temperature   298.150 Kelvin.  Pressure   1.00000 Atm.
 Atom     1 has atomic number  8 and mass  15.99491

 Molecular mass:   247.16578 amu.
 Principal axes and moments of inertia in atomic units:
                           1         2         3
     Eigenvalues --  2314.669086736.277697630.27996
           X            0.99995  -0.00928   0.00391
           Y            0.00925   0.99994   0.00561
           Z           -0.00396  -0.00557   0.99998
 This molecule is an asymmetric top.
 Rotational symmetry number  1.
 Warning -- assumption of classical behavior for rotation
           may cause significant error
 Rotational temperatures (Kelvin)      0.03742     0.01286     0.01135
 Rotational constants (GHZ):           0.77970     0.26791     0.23652
 Zero-point vibrational energy     919256.8 (Joules/Mol)
                                  219.70765 (Kcal/Mol)
 Warning -- explicit consideration of  34 degrees of freedom as
           vibrations may cause significant error
 Vibrational temperatures:     39.87    49.11    60.55    97.77   112.44
          (Kelvin)            126.36   153.31   185.68   202.97   241.89
                              278.09   314.61   332.01   379.29   381.47
                              404.46   410.76   422.35   432.97   445.84
                              456.37   472.25   492.93   555.81   582.37
                              595.06   616.37   675.77   683.62   708.48
                              715.84   813.58   845.32   852.34   911.59
                              937.90  1020.83  1193.09  1228.71  1260.02
                             1272.94  1328.67  1336.25  1367.00  1376.05
                             1386.37  1391.32  1421.04  1452.50  1458.71
                             1524.56  1554.53  1588.68  1600.67  1610.22
                             1658.29  1707.12  1720.35  1727.30  1748.75
                             1766.77  1804.39  1824.25  1847.05  1857.93
                             1905.47  1905.72  1937.87  1963.79  1996.28
                             2001.89  2011.39  2025.30  2028.36  2035.55
                             2061.88  2092.18  2099.33  2114.38  2123.76
                             2125.19  2131.77  2137.90  2143.85  2148.54
                             2154.25  2160.62  2167.76  2180.52  2393.56
                             2658.77  4382.43  4395.36  4406.21  4414.74
                             4416.72  4420.24  4423.42  4439.59  4466.82
                             4484.26  4502.81  4522.58  4524.46  4527.19
                             4529.41  4538.89  4555.19  4558.28  4561.69
                             5077.46  5178.58  5490.12  5578.30

 Zero-point correction=                           0.350126 (Hartree/Particle)
 Thermal correction to Energy=                    0.370532
 Thermal correction to Enthalpy=                  0.371476
 Thermal correction to Gibbs Free Energy=         0.300609
 Sum of electronic and zero-point Energies=           -842.918860
 Sum of electronic and thermal Energies=              -842.898454
 Sum of electronic and thermal Enthalpies=            -842.897510
 Sum of electronic and thermal Free Energies=         -842.968378

                     E (Thermal)             CV                S
                      KCal/Mol        Cal/Mol-Kelvin    Cal/Mol-Kelvin
 Total                  232.512             76.153            149.153
 Electronic               0.000              0.000              1.377
 Translational            0.889              2.981             42.415
 Rotational               0.889              2.981             33.142
 Vibrational            230.735             70.192             72.218
 Vibration     1          0.593              1.984              5.987
 Vibration     2          0.594              1.983              5.574
 Vibration     3          0.595              1.980              5.159
 Vibration     4          0.598              1.969              4.212
 Vibration     5          0.599              1.964              3.937
 Vibration     6          0.601              1.958              3.708
 Vibration     7          0.605              1.944              3.331
 Vibration     8          0.612              1.924              2.960
 Vibration     9          0.615              1.912              2.789
 Vibration    10          0.625              1.882              2.456
 Vibration    11          0.635              1.849              2.196
 Vibration    12          0.646              1.813              1.970
 Vibration    13          0.652              1.794              1.873
 Vibration    14          0.670              1.740              1.638
 Vibration    15          0.671              1.737              1.628
 Vibration    16          0.681              1.709              1.527
 Vibration    17          0.683              1.701              1.501
 Vibration    18          0.688              1.686              1.453
 Vibration    19          0.693              1.672              1.412
 Vibration    20          0.699              1.655              1.363
 Vibration    21          0.704              1.641              1.325
 Vibration    22          0.711              1.619              1.269
 Vibration    23          0.722              1.590              1.200
 Vibration    24          0.755              1.499              1.014
 Vibration    25          0.770              1.460              0.945
 Vibration    26          0.777              1.441              0.914
 Vibration    27          0.790              1.408              0.864
 Vibration    28          0.827              1.317              0.738
 Vibration    29          0.832              1.305              0.723
 Vibration    30          0.848              1.267              0.677
 Vibration    31          0.853              1.255              0.664
 Vibration    32          0.921              1.106              0.513
 Vibration    33          0.945              1.058              0.472
 Vibration    34          0.950              1.048              0.463

 Optimization completed.
    -- Stationary point found.
 Normal termination of Gaussian 16 at Mon Dec 21 22:42:44 2020.
