 Gaussian 16, Revision A.03,
 Gaussian 16:  ES64L-G16RevA.03 25-Dec-2016

 -----------------------------------------------------
 # scrf=(solvent=water,pcm) opt freq m062x/6-311g(d,p)
 -----------------------------------------------------

 -------------------
 Title Card Required
 -------------------
 Symbolic Z-matrix:
 Charge =  0 Multiplicity = 2

 SCF Done:  E(UM062X) =  -843.229656590     A.U. after   17 cycles
 SCF Done:  E(UM062X) =  -843.254087380     A.U. after   14 cycles
 SCF Done:  E(UM062X) =  -843.263910210     A.U. after   16 cycles
 SCF Done:  E(UM062X) =  -843.266462612     A.U. after   15 cycles
 SCF Done:  E(UM062X) =  -843.265956016     A.U. after   17 cycles
 SCF Done:  E(UM062X) =  -843.264701074     A.U. after   15 cycles
 SCF Done:  E(UM062X) =  -843.265606461     A.U. after   14 cycles
 SCF Done:  E(UM062X) =  -843.267020081     A.U. after   13 cycles
 SCF Done:  E(UM062X) =  -843.268070928     A.U. after   14 cycles
 SCF Done:  E(UM062X) =  -843.268020565     A.U. after   17 cycles
 SCF Done:  E(UM062X) =  -843.273662809     A.U. after   12 cycles
 SCF Done:  E(UM062X) =  -843.273672107     A.U. after   12 cycles
 SCF Done:  E(UM062X) =  -843.273674542     A.U. after   11 cycles
 SCF Done:  E(UM062X) =  -843.273678897     A.U. after    9 cycles
 SCF Done:  E(UM062X) =  -843.273680892     A.U. after   12 cycles
 SCF Done:  E(UM062X) =  -843.273682262     A.U. after   10 cycles
 SCF Done:  E(UM062X) =  -843.273683317     A.U. after    8 cycles
 SCF Done:  E(UM062X) =  -843.273683663     A.U. after    8 cycles
 SCF Done:  E(UM062X) =  -843.273683881     A.U. after   10 cycles
 Optimization completed.
    -- Stationary point found.
 Normal termination of Gaussian 16 at Tue Dec 22 07:14:15 2020.

 ----------------------------------------------------------------------
 #N Geom=AllCheck Guess=TCheck SCRF=Check GenChk UM062X/6-311G(d,p) Fre
 q
 ----------------------------------------------------------------------

 Structure from the checkpoint file:  "Tem_Gly_2.chk"
 -------------------
 Title Card Required
 -------------------
 Charge =  0 Multiplicity = 2

                         Standard orientation:
 ---------------------------------------------------------------------
 Center     Atomic      Atomic             Coordinates (Angstroms)
 Number     Number       Type             X           Y           Z
 ---------------------------------------------------------------------
      1          8           0        2.565940   -2.070485   -1.637251
      2          1           0        3.171322   -1.733282   -2.304344
      3          6           0        1.111656    1.272487   -0.559881
      4          7           0        0.387688    0.693910    0.614773
      5          8           0       -0.326517    1.499685    1.292508
      6          6           0        1.564427    0.134754   -1.480547
      7          6           0        2.255900   -1.005597   -0.747216
      8          6           0        1.306604   -1.573115    0.290669
      9          6           0        0.842371   -0.542165    1.322467
     10          6           0       -0.345063   -1.107498    2.100224
     11          6           0        0.137459    2.172407   -1.319693
     12          6           0        1.953042   -0.180070    2.321362
     13          6           0        2.290765    2.124365   -0.064075
     14          1           0        2.228415    0.556707   -2.242022
     15          1           0        0.687175   -0.281438   -1.985713
     16          1           0        1.780687   -2.405808    0.817103
     17          1           0        0.434683   -1.966385   -0.243870
     18          1           0       -0.031504   -2.029048    2.594801
     19          1           0       -1.172348   -1.348623    1.432087
     20          1           0       -0.688831   -0.400764    2.853873
     21          1           0       -0.749031    1.605713   -1.603351
     22          1           0        0.633071    2.535463   -2.222534
     23          1           0       -0.154302    3.029989   -0.713213
     24          1           0        3.177202   -0.653206   -0.267786
     25          1           0        1.629208    0.663562    2.934049
     26          1           0        2.137497   -1.034583    2.975719
     27          1           0        2.892984    0.078561    1.836203
     28          1           0        2.676944    2.715054   -0.897532
     29          1           0        1.944001    2.807538    0.713874
     30          1           0        3.111881    1.528184    0.331649
     31          8           0       -2.923272   -2.046993   -0.282885
     32          8           0       -1.818904   -0.509300   -1.471066
     33          7           0       -3.091322    1.604373   -0.013401
     34          6           0       -3.399867    0.211789    0.223019
     35          6           0       -2.615612   -0.783011   -0.611994
     36          1           0       -4.458527    0.009127    0.034588
     37          1           0       -3.225477   -0.036083    1.273541
     38          1           0       -3.142178    1.801915   -1.007720
     39          1           0       -2.131969    1.783906    0.274418
     40          1           0       -2.413531   -2.643816   -0.849881
 ---------------------------------------------------------------------

 SCF Done:  E(UM062X) =  -843.273683881     A.U. after    1 cycles

 The electronic state is 2-A.
 Alpha  occ. eigenvalues --  -19.67176 -19.62645 -19.62394 -19.61724 -14.84136
 Alpha  occ. eigenvalues --  -14.72169 -10.68089 -10.59255 -10.59063 -10.59048
 Alpha  occ. eigenvalues --  -10.57694 -10.53739 -10.53432 -10.53007 -10.52919
 Alpha  occ. eigenvalues --  -10.52718 -10.52121  -1.24629  -1.23421  -1.15118
 Alpha  occ. eigenvalues --   -1.14818  -0.99479  -0.98214  -0.92758  -0.86022
 Alpha  occ. eigenvalues --   -0.82300  -0.81669  -0.79262  -0.78189  -0.77912
 Alpha  occ. eigenvalues --   -0.69115  -0.69064  -0.68587  -0.61643  -0.59762
 Alpha  occ. eigenvalues --   -0.59145  -0.59099  -0.58463  -0.57297  -0.56478
 Alpha  occ. eigenvalues --   -0.55834  -0.53324  -0.52672  -0.51367  -0.50112
 Alpha  occ. eigenvalues --   -0.49584  -0.49486  -0.48583  -0.47716  -0.47352
 Alpha  occ. eigenvalues --   -0.46200  -0.45740  -0.44605  -0.43936  -0.43519
 Alpha  occ. eigenvalues --   -0.43447  -0.43320  -0.41417  -0.40760  -0.40596
 Alpha  occ. eigenvalues --   -0.39964  -0.39395  -0.37828  -0.37150  -0.34562
 Alpha  occ. eigenvalues --   -0.33859  -0.31823  -0.26846
 Alpha virt. eigenvalues --    0.04492   0.06427   0.07500   0.08527   0.09416
 Alpha virt. eigenvalues --    0.09767   0.10482   0.11380   0.11607   0.13230
 Alpha virt. eigenvalues --    0.14305   0.14787   0.15353   0.15819   0.16831

  Beta  occ. eigenvalues --  -19.67176 -19.62388 -19.61723 -19.61644 -14.83297
  Beta  occ. eigenvalues --  -14.72160 -10.68088 -10.59285 -10.59092 -10.59049
  Beta  occ. eigenvalues --  -10.57694 -10.53735 -10.53429 -10.52970 -10.52882
  Beta  occ. eigenvalues --  -10.52708 -10.52111  -1.24624  -1.20490  -1.15113
  Beta  occ. eigenvalues --   -1.14814  -0.99445  -0.96986  -0.92567  -0.85442
  Beta  occ. eigenvalues --   -0.81686  -0.80671  -0.79039  -0.78112  -0.77838
  Beta  occ. eigenvalues --   -0.69065  -0.68817  -0.68057  -0.61185  -0.59534
  Beta  occ. eigenvalues --   -0.58992  -0.58689  -0.58146  -0.56315  -0.56143
  Beta  occ. eigenvalues --   -0.53286  -0.52945  -0.52020  -0.51082  -0.50008
  Beta  occ. eigenvalues --   -0.49488  -0.49309  -0.48386  -0.47112  -0.46607
  Beta  occ. eigenvalues --   -0.45973  -0.45537  -0.43967  -0.43479  -0.43418
  Beta  occ. eigenvalues --   -0.43321  -0.42121  -0.41161  -0.40736  -0.40141
  Beta  occ. eigenvalues --   -0.39402  -0.38010  -0.37173  -0.37064  -0.34454
  Beta  occ. eigenvalues --   -0.32514  -0.31703
  Beta virt. eigenvalues --   -0.01816   0.04511   0.06490   0.07537   0.08545
  Beta virt. eigenvalues --    0.09447   0.09796   0.10583   0.11400   0.11649
  Beta virt. eigenvalues --    0.13257   0.14337   0.14923   0.15422   0.15801

 Mulliken charges and spin densities:
               1          2
     1  O   -0.459255   0.000132
     2  H    0.278491   0.000055
     3  C   -0.092112  -0.015374
     4  N   -0.081134   0.489211
     5  O   -0.361217   0.468241
     6  C   -0.256898   0.010147
     7  C    0.016672  -0.006070
     8  C   -0.244717   0.009900
     9  C   -0.113556  -0.015924
    10  C   -0.327617   0.002328
    11  C   -0.363570   0.002565
    12  C   -0.324237   0.030917
    13  C   -0.324569   0.030582
    14  H    0.168888  -0.001414
    15  H    0.168326  -0.001312
    16  H    0.172072  -0.001395
    17  H    0.155199  -0.000271
    18  H    0.154077  -0.001396
    19  H    0.130645   0.001502
    20  H    0.156796  -0.001026
    21  H    0.142704   0.001057
    22  H    0.150718  -0.001139
    23  H    0.152864  -0.000663
    24  H    0.154779  -0.000518
    25  H    0.158014  -0.002992
    26  H    0.157286   0.002515
    27  H    0.143788  -0.001222
    28  H    0.156538   0.002500
    29  H    0.157005  -0.003000
    30  H    0.142309  -0.001262
    31  O   -0.367921  -0.000112
    32  O   -0.371991  -0.000263
    33  N   -0.513726   0.006857
    34  C   -0.223051  -0.002771
    35  C    0.361604   0.002321
    36  H    0.191402   0.000232
    37  H    0.190396   0.000813
    38  H    0.225518   0.000208
    39  H    0.235570  -0.003781
    40  H    0.303906  -0.000179
 Sum of Mulliken charges =   0.00000   1.00000

 Dipole moment (field-independent basis, Debye):
    X=              3.5012    Y=             -2.1242    Z=             -1.5812  Tot=              4.3899
 Quadrupole moment (field-independent basis, Debye-Ang):
   XX=            -98.2952   YY=           -110.4178   ZZ=           -103.2256
   XY=             10.9567   XZ=              1.3538   YZ=             -7.0480

  Exact polarizability: 190.167  -2.444 195.443 -13.316  -5.478 187.811
 Approx polarizability: 173.788  -1.280 177.394 -11.908  -1.701 174.771

                      1                      2                      3
                      A                      A                      A
 Frequencies --     31.6264                34.4175                55.1201
 Red. masses --      6.7218                 4.9124                 5.6081
 Frc consts  --      0.0040                 0.0034                 0.0100

 IR Inten    --      1.6297                 3.5059                 1.1172

                      4                      5                      6
                      A                      A                      A
 Frequencies --     80.6443                87.8224                99.6977
 Red. masses --      5.2310                 4.3354                 4.9494
 Frc consts  --      0.0200                 0.0197                 0.0290

 IR Inten    --      0.2408                 0.4442                 4.4361

                      7                      8                      9
                      A                      A                      A
 Frequencies --    111.0724               135.2640               151.3194
 Red. masses --      3.1076                 2.6684                 2.9812
 Frc consts  --      0.0226                 0.0288                 0.0402

 IR Inten    --      3.6092                 2.5487                 5.7228

                     10                     11                     12
                      A                      A                      A
 Frequencies --    176.5524               180.4087               211.2952
 Red. masses --      2.5966                 1.1663                 3.0118
 Frc consts  --      0.0477                 0.0224                 0.0792

 IR Inten    --      1.6853                 0.0630                 4.3704

                     13                     14                     15
                      A                      A                      A
 Frequencies --    260.1811               262.5748               271.9742
 Red. masses --      1.7044                 1.6129                 1.4402
 Frc consts  --      0.0680                 0.0655                 0.0628

 IR Inten    --      3.9774                23.8127                61.7784

                     16                     17                     18
                      A                      A                      A
 Frequencies --    282.5277               291.2924               292.4090
 Red. masses --      1.4459                 1.9698                 1.9707
 Frc consts  --      0.0680                 0.0985                 0.0993

 IR Inten    --     50.9435                60.0475                 9.9616

                     19                     20                     21
                      A                      A                      A
 Frequencies --    304.7443               316.8772               336.4072
 Red. masses --      1.3491                 2.4155                 1.9399
 Frc consts  --      0.0738                 0.1429                 0.1293

 IR Inten    --      1.4487                 2.1700                 3.7752

                     22                     23                     24
                      A                      A                      A
 Frequencies --    353.0542               374.9411               382.3780
 Red. masses --      2.2142                 1.2710                 2.6243
 Frc consts  --      0.1626                 0.1053                 0.2261

 IR Inten    --     11.1938                65.7052                 3.3853

                     25                     26                     27
                      A                      A                      A
 Frequencies --    404.5447               418.3328               430.8140
 Red. masses --      3.8873                 4.0342                 2.7884
 Frc consts  --      0.3748                 0.4160                 0.3049

 IR Inten    --     22.5608                 0.8149                 9.0302

                     28                     29                     30
                      A                      A                      A
 Frequencies --    472.9330               478.4179               493.8336
 Red. masses --      2.9361                 4.5521                 2.1433
 Frc consts  --      0.3869                 0.6139                 0.3080

 IR Inten    --      7.0511                38.0738                 5.6960

                     31                     32                     33
                      A                      A                      A
 Frequencies --    509.3325               566.2329               587.6527
 Red. masses --      1.4328                 2.7544                 2.9814
 Frc consts  --      0.2190                 0.5203                 0.6066

 IR Inten    --     74.6871                 1.1103                 8.9611

                     34                     35                     36
                      A                      A                      A
 Frequencies --    599.1024               638.3704               651.9273
 Red. masses --      4.1534                 1.5052                 3.9383
 Frc consts  --      0.8783                 0.3614                 0.9862

 IR Inten    --     15.8146               149.6450                20.1714

                     37                     38                     39
                      A                      A                      A
 Frequencies --    708.0828               828.5020               853.7943
 Red. masses --      3.5014                 2.5629                 2.8192
 Frc consts  --      1.0343                 1.0365                 1.2108

 IR Inten    --     20.3490                 0.9275               109.0635

                     40                     41                     42
                      A                      A                      A
 Frequencies --    875.1167               883.3890               923.6406
 Red. masses --      2.5588                 1.5795                 2.3247
 Frc consts  --      1.1546                 0.7262                 1.1685

 IR Inten    --      1.8510                 2.1640                24.8076

                     43                     44                     45
                      A                      A                      A
 Frequencies --    930.9741               948.9230               958.8910
 Red. masses --      1.7685                 1.4970                 1.4618
 Frc consts  --      0.9031                 0.7942                 0.7919

 IR Inten    --     15.3626                 2.1117                 9.2186

                     46                     47                     48
                      A                      A                      A
 Frequencies --    969.3252               972.9732               989.9961
 Red. masses --      1.6633                 1.6417                 1.6857
 Frc consts  --      0.9208                 0.9157                 0.9734

 IR Inten    --     96.6420               126.5766                 1.8186

                     49                     50                     51
                      A                      A                      A
 Frequencies --   1014.5991              1016.9217              1061.0319
 Red. masses --      1.3266                 1.4299                 1.5794
 Frc consts  --      0.8046                 0.8712                 1.0476

 IR Inten    --      0.8855                 7.2797                 2.5164

                     52                     53                     54
                      A                      A                      A
 Frequencies --   1070.9596              1103.1472              1114.2377
 Red. masses --      2.3084                 2.2247                 1.9268
 Frc consts  --      1.5599                 1.5951                 1.4094

 IR Inten    --      1.3930                78.0930                48.2625

                     55                     56                     57
                      A                      A                      A
 Frequencies --   1119.1086              1157.8926              1191.6211
 Red. masses --      1.8622                 3.3496                 2.1379
 Frc consts  --      1.3741                 2.6459                 1.7886

 IR Inten    --      0.8467               264.7730               160.6838

                     58                     59                     60
                      A                      A                      A
 Frequencies --   1196.0740              1205.2539              1215.5479
 Red. masses --      2.1649                 1.2993                 2.4760
 Frc consts  --      1.8247                 1.1121                 2.1555

 IR Inten    --     33.2599                14.9178                41.3177

                     61                     62                     63
                      A                      A                      A
 Frequencies --   1229.0577              1253.6155              1267.0845
 Red. masses --      2.5873                 1.9730                 1.8058
 Frc consts  --      2.3027                 1.8269                 1.7082

 IR Inten    --     22.9318                36.8015                28.6027

                     64                     65                     66
                      A                      A                      A
 Frequencies --   1285.5446              1292.0279              1323.0020
 Red. masses --      2.5372                 1.6902                 1.4836
 Frc consts  --      2.4705                 1.6624                 1.5300

 IR Inten    --     18.2546                52.7994                15.1118

                     67                     68                     69
                      A                      A                      A
 Frequencies --   1326.9947              1350.3309              1365.9984
 Red. masses --      1.3652                 1.4930                 1.6741
 Frc consts  --      1.4164                 1.6039                 1.8405

 IR Inten    --      3.5912                 9.0958                45.6198

                     70                     71                     72
                      A                      A                      A
 Frequencies --   1390.3056              1394.9899              1397.8329
 Red. masses --      1.2984                 1.2075                 1.3448
 Frc consts  --      1.4787                 1.3845                 1.5481

 IR Inten    --      2.6939                 2.7820                33.6217

                     73                     74                     75
                      A                      A                      A
 Frequencies --   1407.8579              1409.5998              1416.0555
 Red. masses --      1.2378                 1.2807                 1.5403
 Frc consts  --      1.4455                 1.4994                 1.8198

 IR Inten    --     38.5857                18.5877                22.9284

                     76                     77                     78
                      A                      A                      A
 Frequencies --   1426.8335              1450.8090              1455.0605
 Red. masses --      1.9618                 1.1076                 1.5267
 Frc consts  --      2.3532                 1.3736                 1.9044

 IR Inten    --     48.4462                31.0548                10.8573

                     79                     80                     81
                      A                      A                      A
 Frequencies --   1469.0583              1476.3123              1480.6686
 Red. masses --      1.0822                 1.0544                 1.7242
 Frc consts  --      1.3760                 1.3540                 2.2272

 IR Inten    --      4.4900                 1.1200                 3.3451

                     82                     83                     84
                      A                      A                      A
 Frequencies --   1482.5270              1485.5284              1491.4314
 Red. masses --      1.0699                 1.5927                 1.0755
 Frc consts  --      1.3855                 2.0709                 1.4095

 IR Inten    --      3.3886                14.0477                 4.8623

                     85                     86                     87
                      A                      A                      A
 Frequencies --   1492.2371              1495.7450              1503.3399
 Red. masses --      1.0838                 1.1921                 1.0919
 Frc consts  --      1.4220                 1.5714                 1.4540

 IR Inten    --      2.0350                11.7332                 5.0942

                     88                     89                     90
                      A                      A                      A
 Frequencies --   1511.3389              1522.1326              1666.5881
 Red. masses --      1.0617                 1.1144                 1.0898
 Frc consts  --      1.4288                 1.5212                 1.7835

 IR Inten    --     19.7804                26.2348                27.9725

                     91                     92                     93
                      A                      A                      A
 Frequencies --   1849.9877              3040.5940              3057.0113
 Red. masses --     10.4655                 1.0819                 1.0598
 Frc consts  --     21.1031                 5.8934                 5.8356

 IR Inten    --    542.8287                30.8767                25.4947

                     94                     95                     96
                      A                      A                      A
 Frequencies --   3060.9027              3070.1767              3073.6540
 Red. masses --      1.0619                 1.0360                 1.0377
 Frc consts  --      5.8618                 5.7535                 5.7763

 IR Inten    --     46.8712                 5.2133                33.7002

                     97                     98                     99
                      A                      A                      A
 Frequencies --   3075.1365              3077.3171              3082.2480
 Red. masses --      1.0620                 1.0364                 1.0369
 Frc consts  --      5.9170                 5.7824                 5.8042

 IR Inten    --     26.2582                35.9751                17.4877

                    100                    101                    102
                      A                      A                      A
 Frequencies --   3110.7137              3116.0197              3117.9242
 Red. masses --      1.1048                 1.1031                 1.1012
 Frc consts  --      6.2985                 6.3103                 6.3076

 IR Inten    --     19.6053                30.9465                 8.9566

                    103                    104                    105
                      A                      A                      A
 Frequencies --   3143.2246              3144.7908              3153.6823
 Red. masses --      1.1029                 1.1028                 1.1015
 Frc consts  --      6.4200                 6.4260                 6.4547

 IR Inten    --     19.6913                14.0215                25.9440

                    106                    107                    108
                      A                      A                      A
 Frequencies --   3157.6670              3160.7173              3177.6716
 Red. masses --      1.1001                 1.1026                 1.1025
 Frc consts  --      6.4629                 6.4899                 6.5594

 IR Inten    --     24.8198                19.3236                13.8142

                    109                    110                    111
                      A                      A                      A
 Frequencies --   3177.9603              3178.2890              3511.0851
 Red. masses --      1.1033                 1.0993                 1.0524
 Frc consts  --      6.5649                 6.5425                 7.6438

 IR Inten    --      9.2866                31.9130               103.1456

                    112                    113                    114
                      A                      A                      A
 Frequencies --   3596.1414              3809.2928              3877.4122
 Red. masses --      1.0910                 1.0650                 1.0665
 Frc consts  --      8.3129                 9.1052                 9.4473

 IR Inten    --     66.1717               137.0852                69.7540

 - Thermochemistry -
 -------------------
 Temperature   298.150 Kelvin.  Pressure   1.00000 Atm.
 Atom     1 has atomic number  8 and mass  15.99491

 Molecular mass:   247.16578 amu.
 Principal axes and moments of inertia in atomic units:
                           1         2         3
     Eigenvalues --  3097.503834978.564065384.11630
           X            0.99997   0.00732  -0.00095
           Y           -0.00738   0.98909  -0.14710
           Z           -0.00014   0.14710   0.98912
 This molecule is an asymmetric top.
 Rotational symmetry number  1.
 Warning -- assumption of classical behavior for rotation
           may cause significant error
 Rotational temperatures (Kelvin)      0.02796     0.01740     0.01609
 Rotational constants (GHZ):           0.58264     0.36250     0.33520
 Zero-point vibrational energy     921038.6 (Joules/Mol)
                                  220.13351 (Kcal/Mol)
 Warning -- explicit consideration of  34 degrees of freedom as
           vibrations may cause significant error
 Vibrational temperatures:     45.50    49.52    79.31   116.03   126.36
          (Kelvin)            143.44   159.81   194.61   217.71   254.02
                              259.57   304.01   374.34   377.79   391.31
                              406.49   419.10   420.71   438.46   455.92
                              484.01   507.97   539.46   550.16   582.05
                              601.89   619.85   680.45   688.34   710.52
                              732.82   814.68   845.50   861.97   918.47
                              937.98  1018.77  1192.03  1228.42  1259.10
                             1271.00  1328.91  1339.46  1365.29  1379.63
                             1394.64  1399.89  1424.38  1459.78  1463.12
                             1526.59  1540.87  1587.18  1603.14  1610.15
                             1665.95  1714.48  1720.88  1734.09  1748.90
                             1768.34  1803.67  1823.05  1849.61  1858.94
                             1903.50  1909.25  1942.82  1965.37  2000.34
                             2007.08  2011.17  2025.59  2028.10  2037.39
                             2052.90  2087.39  2093.51  2113.65  2124.08
                             2130.35  2133.03  2137.34  2145.84  2147.00
                             2152.04  2162.97  2174.48  2190.01  2397.85
                             2661.72  4374.74  4398.36  4403.96  4417.30
                             4422.30  4424.44  4427.57  4434.67  4475.62
                             4483.26  4486.00  4522.40  4524.65  4537.45
                             4543.18  4547.57  4571.96  4572.38  4572.85
                             5051.67  5174.05  5480.72  5578.73

 Zero-point correction=                           0.350805 (Hartree/Particle)
 Thermal correction to Energy=                    0.370903
 Thermal correction to Enthalpy=                  0.371847
 Thermal correction to Gibbs Free Energy=         0.302393
 Sum of electronic and zero-point Energies=           -842.922879
 Sum of electronic and thermal Energies=              -842.902781
 Sum of electronic and thermal Enthalpies=            -842.901836
 Sum of electronic and thermal Free Energies=         -842.971291

                     E (Thermal)             CV                S
                      KCal/Mol        Cal/Mol-Kelvin    Cal/Mol-Kelvin
 Total                  232.745             75.767            146.179
 Electronic               0.000              0.000              1.377
 Translational            0.889              2.981             42.415
 Rotational               0.889              2.981             32.784
 Vibrational            230.968             69.805             69.602
 Vibration     1          0.594              1.983              5.725
 Vibration     2          0.594              1.983              5.557
 Vibration     3          0.596              1.976              4.625
 Vibration     4          0.600              1.962              3.875
 Vibration     5          0.601              1.958              3.708
 Vibration     6          0.604              1.949              3.460
 Vibration     7          0.607              1.940              3.250
 Vibration     8          0.613              1.918              2.870
 Vibration     9          0.619              1.901              2.656
 Vibration    10          0.628              1.871              2.365
 Vibration    11          0.629              1.866              2.324
 Vibration    12          0.643              1.824              2.032
 Vibration    13          0.668              1.746              1.661
 Vibration    14          0.670              1.741              1.645
 Vibration    15          0.675              1.725              1.584
 Vibration    16          0.682              1.706              1.518
 Vibration    17          0.687              1.690              1.466
 Vibration    18          0.688              1.688              1.460
 Vibration    19          0.696              1.665              1.391
 Vibration    20          0.704              1.641              1.326
 Vibration    21          0.717              1.603              1.229
 Vibration    22          0.729              1.569              1.153
 Vibration    23          0.746              1.523              1.060
 Vibration    24          0.752              1.508              1.030
 Vibration    25          0.770              1.460              0.946
 Vibration    26          0.781              1.430              0.898
 Vibration    27          0.792              1.403              0.856
 Vibration    28          0.830              1.310              0.729
 Vibration    29          0.835              1.298              0.714
 Vibration    30          0.849              1.264              0.674
 Vibration    31          0.864              1.229              0.635
 Vibration    32          0.922              1.104              0.512
 Vibration    33          0.945              1.058              0.471
 Vibration    34          0.957              1.034              0.451

 Optimization completed.
    -- Stationary point found.
 Normal termination of Gaussian 16 at Tue Dec 22 08:58:46 2020.
