 Gaussian 16, Revision A.03,
 Gaussian 16:  ES64L-G16RevA.03 25-Dec-2016

 --------------------------------------------------------------------
 #p opt freq M062X/6-311g(d,p) scrf=(solvent=carbontetrachloride,pcm)
 --------------------------------------------------------------------

 -------------------
 Title Card Required
 -------------------
 Symbolic Z-matrix:
 Charge =  0 Multiplicity = 2

 SCF Done:  E(UM062X) =  -847.358241187     A.U. after   17 cycles
 SCF Done:  E(UM062X) =  -847.389115976     A.U. after   15 cycles
 SCF Done:  E(UM062X) =  -847.384987258     A.U. after   17 cycles
 SCF Done:  E(UM062X) =  -847.394661343     A.U. after   14 cycles
 SCF Done:  E(UM062X) =  -847.377383552     A.U. after   17 cycles
 SCF Done:  E(UM062X) =  -847.397321984     A.U. after   14 cycles
 SCF Done:  E(UM062X) =  -847.398767555     A.U. after   13 cycles
 SCF Done:  E(UM062X) =  -847.399231806     A.U. after   13 cycles
 SCF Done:  E(UM062X) =  -847.399372884     A.U. after   13 cycles
 SCF Done:  E(UM062X) =  -847.399595122     A.U. after   13 cycles
 SCF Done:  E(UM062X) =  -847.400381452     A.U. after   10 cycles
 SCF Done:  E(UM062X) =  -847.400381625     A.U. after    6 cycles
 SCF Done:  E(UM062X) =  -847.400381683     A.U. after    8 cycles
 SCF Done:  E(UM062X) =  -847.400381700     A.U. after    9 cycles
 SCF Done:  E(UM062X) =  -847.400381676     A.U. after   10 cycles
 SCF Done:  E(UM062X) =  -847.400381713     A.U. after    9 cycles
 SCF Done:  E(UM062X) =  -847.400381728     A.U. after    9 cycles
 SCF Done:  E(UM062X) =  -847.400381743     A.U. after    9 cycles
 SCF Done:  E(UM062X) =  -847.400381753     A.U. after    9 cycles
 Optimization completed.
    -- Stationary point found.
 Normal termination of Gaussian 16 at Sat May 16 17:34:04 2020.

 ----------------------------------------------------------------------
 #P Geom=AllCheck Guess=TCheck SCRF=Check GenChk UM062X/6-311G(d,p) Fre
 q
 ----------------------------------------------------------------------

 Structure from the checkpoint file:  "gausopt.chk"
 -------------------
 Title Card Required
 -------------------
 Charge =  0 Multiplicity = 2

                         Standard orientation:
 ---------------------------------------------------------------------
 Center     Atomic      Atomic             Coordinates (Angstroms)
 Number     Number       Type             X           Y           Z
 ---------------------------------------------------------------------
      1          7           0        1.574963   -0.606274   -0.000497
      2          6           0        2.038918   -0.089109    1.323802
      3          6           0        2.243820    1.428573    1.246324
      4          6           0        3.011355    1.871037    0.005153
      5          6           0        2.251514    1.429823   -1.241190
      6          6           0        2.047009   -0.087776   -1.321426
      7          8           0        1.131489   -1.799096   -0.002464
      8          6           0        0.966205   -0.412862   -2.353505
      9          6           0        0.951778   -0.415090    2.348943
     10          1           0        2.757694    1.739759    2.159929
     11          1           0        1.263887    1.919292    1.252178
     12          1           0        2.771101    1.741856   -2.151270
     13          1           0        1.271727    1.920719   -1.252676
     14          1           0        1.250337    0.027698   -3.311557
     15          1           0        0.001332    0.003230   -2.054636
     16          1           0        0.859073   -1.489600   -2.477621
     17          1           0       -0.011038    0.001973    2.044844
     18          1           0        1.230441    0.023984    3.309273
     19          1           0        0.843246   -1.491939    2.470849
     20          1           0        3.118314    2.957826    0.006002
     21          1           0        4.024758    1.459496    0.008062
     22          6           0       -3.675738   -0.245112    0.000021
     23          6           0       -2.261507   -0.155861   -0.003788
     24          6           0       -1.597322    1.076004   -0.005727
     25          6           0       -2.368520    2.223456   -0.003840
     26          6           0       -3.775528    2.155649   -0.000083
     27          6           0       -4.430474    0.938673    0.001878
     28          6           0       -3.999646   -1.642691    0.001210
     29          6           0       -2.813012   -2.320399   -0.001873
     30          1           0       -0.514776    1.121945   -0.008432
     31          1           0       -1.882539    3.192134   -0.005268
     32          1           0       -4.348989    3.074829    0.001321
     33          1           0       -5.513799    0.895882    0.004854
     34          1           0       -4.983655   -2.083233    0.003914
     35          1           0       -0.778287   -1.684770   -0.007107
     36          7           0       -1.763279   -1.434578   -0.004860
     37          1           0       -2.624759   -3.382532   -0.002114
     38          6           0        3.344647   -0.815325   -1.701087
     39          1           0        3.201434   -1.892041   -1.595505
     40          1           0        3.588655   -0.595189   -2.742693
     41          1           0        4.189688   -0.510455   -1.083380
     42          6           0        3.334178   -0.817108    1.710650
     43          1           0        3.572022   -0.597829    2.753860
     44          1           0        3.191444   -1.893720    1.603372
     45          1           0        4.182928   -0.511883    1.098232
 ---------------------------------------------------------------------

 SCF Done:  E(UM062X) =  -847.400381753     A.U. after    1 cycles

 The electronic state is 2-A.
 Alpha  occ. eigenvalues --  -19.63162 -14.84746 -14.77494 -10.59461 -10.59457
 Alpha  occ. eigenvalues --  -10.56615 -10.56480 -10.54482 -10.54476 -10.54336
 Alpha  occ. eigenvalues --  -10.53774 -10.53367 -10.53365 -10.53349 -10.53318
 Alpha  occ. eigenvalues --  -10.53137 -10.52756 -10.52746 -10.52729 -10.51888
 Alpha  occ. eigenvalues --   -1.24099  -1.08365  -0.98808  -0.93978  -0.93164
 Alpha  occ. eigenvalues --   -0.87837  -0.87408  -0.82701  -0.82456  -0.80604
 Alpha  occ. eigenvalues --   -0.79584  -0.78512  -0.78090  -0.70320  -0.69752
 Alpha  occ. eigenvalues --   -0.69144  -0.66756  -0.65840  -0.61676  -0.60640
 Alpha  occ. eigenvalues --   -0.57947  -0.56753  -0.56724  -0.54763  -0.54395
 Alpha  occ. eigenvalues --   -0.53878  -0.52040  -0.50569  -0.50343  -0.49804
 Alpha  occ. eigenvalues --   -0.49541  -0.49223  -0.47981  -0.47862  -0.47063
 Alpha  occ. eigenvalues --   -0.46260  -0.46206  -0.44932  -0.44726  -0.44231
 Alpha  occ. eigenvalues --   -0.43802  -0.42687  -0.42017  -0.41289  -0.40313
 Alpha  occ. eigenvalues --   -0.39902  -0.39690  -0.39515  -0.38327  -0.37716
 Alpha  occ. eigenvalues --   -0.34423  -0.33450  -0.27546  -0.27018  -0.25230
 Alpha virt. eigenvalues --    0.01911   0.05997   0.06097   0.07694   0.08725
 Alpha virt. eigenvalues --    0.09290   0.09767   0.10639   0.10644   0.11142
 Alpha virt. eigenvalues --    0.12716   0.13248   0.13466   0.13781   0.14548

  Beta  occ. eigenvalues --  -19.62184 -14.83920 -14.77477 -10.59490 -10.59485
  Beta  occ. eigenvalues --  -10.56615 -10.56480 -10.54479 -10.54474 -10.54337
  Beta  occ. eigenvalues --  -10.53765 -10.53349 -10.53331 -10.53328 -10.53318
  Beta  occ. eigenvalues --  -10.53136 -10.52745 -10.52735 -10.52728 -10.51887
  Beta  occ. eigenvalues --   -1.21204  -1.08339  -0.97634  -0.93969  -0.92965
  Beta  occ. eigenvalues --   -0.87450  -0.87121  -0.82569  -0.81024  -0.80570
  Beta  occ. eigenvalues --   -0.79360  -0.78387  -0.78062  -0.70283  -0.69517
  Beta  occ. eigenvalues --   -0.68522  -0.66696  -0.65814  -0.61394  -0.59702
  Beta  occ. eigenvalues --   -0.56948  -0.56395  -0.54768  -0.54527  -0.53984
  Beta  occ. eigenvalues --   -0.52509  -0.51951  -0.50295  -0.50239  -0.49547
  Beta  occ. eigenvalues --   -0.49310  -0.49203  -0.47537  -0.47391  -0.46991
  Beta  occ. eigenvalues --   -0.46013  -0.45816  -0.44917  -0.43950  -0.43721
  Beta  occ. eigenvalues --   -0.43521  -0.41963  -0.41287  -0.40864  -0.40210
  Beta  occ. eigenvalues --   -0.39813  -0.39319  -0.39221  -0.37617  -0.36937
  Beta  occ. eigenvalues --   -0.33568  -0.32849  -0.27012  -0.25221
  Beta virt. eigenvalues --   -0.02873   0.01925   0.06003   0.06213   0.07702
  Beta virt. eigenvalues --    0.08770   0.09340   0.09864   0.10656   0.10664
  Beta virt. eigenvalues --    0.11178   0.12696   0.13261   0.13529   0.13811

 Mulliken charges and spin densities:
               1          2
     1  N   -0.097465   0.488934
     2  C   -0.099051  -0.016114
     3  C   -0.269228   0.007293
     4  C   -0.279778  -0.003265
     5  C   -0.269310   0.007283
     6  C   -0.099075  -0.016086
     7  O   -0.350335   0.460755
     8  C   -0.335843   0.004559
     9  C   -0.335858   0.004560
    10  H    0.167683  -0.001401
    11  H    0.166771  -0.002900
    12  H    0.167713  -0.001399
    13  H    0.166828  -0.002926
    14  H    0.146465  -0.001147
    15  H    0.156766   0.000006
    16  H    0.160685  -0.000906
    17  H    0.156901   0.000023
    18  H    0.146422  -0.001145
    19  H    0.160623  -0.000906
    20  H    0.166735   0.000041
    21  H    0.150404  -0.000269
    22  C   -0.155267   0.000310
    23  C    0.208692   0.000451
    24  C   -0.076016   0.004788
    25  C   -0.173755  -0.001528
    26  C   -0.155942   0.000256
    27  C   -0.088581  -0.000229
    28  C   -0.196977  -0.000048
    29  C    0.072271  -0.000050
    30  H    0.116150   0.007220
    31  H    0.119857  -0.000049
    32  H    0.124709   0.000031
    33  H    0.122735   0.000020
    34  H    0.121127   0.000134
    35  H    0.291695  -0.001856
    36  N   -0.516708   0.007135
    37  H    0.140478   0.000092
    38  C   -0.319310   0.031144
    39  H    0.164443  -0.003052
    40  H    0.150540   0.002219
    41  H    0.138087  -0.001146
    42  C   -0.319308   0.031136
    43  H    0.150538   0.002219
    44  H    0.164429  -0.003050
    45  H    0.138059  -0.001141
 Sum of Mulliken charges =  -0.00000   1.00000

 Dipole moment (field-independent basis, Debye):
    X=              4.5984    Y=              1.3687    Z=              0.0045  Tot=              4.7978
 Quadrupole moment (field-independent basis, Debye-Ang):
   XX=           -118.0352   YY=           -119.3081   ZZ=           -123.2368
   XY=              5.3195   XZ=             -0.0354   YZ=             -0.0004

  Exact polarizability: 253.879   1.638 251.066  -0.172  -0.004 170.531
 Approx polarizability: 267.384   0.212 296.026  -0.205   0.012 187.410

                      1                      2                      3
                      A                      A                      A
 Frequencies --      9.3857                25.9114                39.2977
 Red. masses --      3.9456                 4.4049                 4.2298
 Frc consts  --      0.0002                 0.0017                 0.0038
 IR Inten    --      0.1176                 0.4167                 1.1067

                      4                      5                      6
                      A                      A                      A
 Frequencies --     63.9463                74.5524                95.2470
 Red. masses --      5.1984                 3.7814                 4.6378
 Frc consts  --      0.0125                 0.0124                 0.0248
 IR Inten    --      0.8934                 0.3329                 0.0002

                      7                      8                      9
                      A                      A                      A
 Frequencies --    145.4185               146.2717               191.9568
 Red. masses --      4.5998                 2.5102                 1.0628
 Frc consts  --      0.0573                 0.0316                 0.0231
 IR Inten    --     13.3545                 0.1375                 0.0055

                     10                     11                     12
                      A                      A                      A
 Frequencies --    216.4230               229.3961               252.6841
 Red. masses --      4.1280                 2.6278                 4.1675
 Frc consts  --      0.1139                 0.0815                 0.1568
 IR Inten    --      8.9453                 7.8832                 0.3913

                     13                     14                     15
                      A                      A                      A
 Frequencies --    257.7936               264.8433               285.4750
 Red. masses --      1.1710                 1.0558                 1.4859
 Frc consts  --      0.0459                 0.0436                 0.0713
 IR Inten    --      4.4638                 0.0412                 0.3490

                     16                     17                     18
                      A                      A                      A
 Frequencies --    300.3005               304.7213               320.0118
 Red. masses --      2.1889                 2.2776                 2.4610
 Frc consts  --      0.1163                 0.1246                 0.1485
 IR Inten    --      0.1524                 0.0005                 0.8983

                     19                     20                     21
                      A                      A                      A
 Frequencies --    334.9644               344.4115               390.8496
 Red. masses --      1.9152                 2.5315                 3.2919
 Frc consts  --      0.1266                 0.1769                 0.2963
 IR Inten    --      1.4960                 0.7348                 8.7369

                     22                     23                     24
                      A                      A                      A
 Frequencies --    402.7700               409.7659               419.5000
 Red. masses --      3.6054                 2.6236                 1.8605
 Frc consts  --      0.3446                 0.2595                 0.1929
 IR Inten    --      7.2501                 9.6872                 3.0291

                     25                     26                     27
                      A                      A                      A
 Frequencies --    442.4828               459.9275               474.4189
 Red. masses --      3.0431                 3.1210                 3.0770
 Frc consts  --      0.3510                 0.3890                 0.4080
 IR Inten    --      6.1101                 1.1604                 0.6204

                     28                     29                     30
                      A                      A                      A
 Frequencies --    547.9090               551.5550               577.1684
 Red. masses --      3.2770                 6.6038                 3.4517
 Frc consts  --      0.5796                 1.1836                 0.6775
 IR Inten    --      8.9430                 0.3698                 5.0268

                     31                     32                     33
                      A                      A                      A
 Frequencies --    581.9646               586.3831               598.3365
 Red. masses --      3.4037                 2.2214                 2.7942
 Frc consts  --      0.6792                 0.4500                 0.5894
 IR Inten    --     10.0334                 3.0001                 8.3461

                     34                     35                     36
                      A                      A                      A
 Frequencies --    618.8158               656.3037               679.3107
 Red. masses --      6.4572                 3.4792                 1.2068
 Frc consts  --      1.4569                 0.8830                 0.3281
 IR Inten    --      5.5882                 5.3889                50.4067

                     37                     38                     39
                      A                      A                      A
 Frequencies --    747.9962               765.8336               781.2763
 Red. masses --      1.4110                 1.3960                 5.0390
 Frc consts  --      0.4651                 0.4824                 1.8122
 IR Inten    --     27.3627                96.6347                 3.3706

                     40                     41                     42
                      A                      A                      A
 Frequencies --    793.4885               807.9826               817.9374
 Red. masses --      2.5017                 2.5105                 2.1835
 Frc consts  --      0.9280                 0.9657                 0.8607
 IR Inten    --     42.5946                 2.6275                 3.9560

                     43                     44                     45
                      A                      A                      A
 Frequencies --    872.3937               878.6443               887.1041
 Red. masses --      1.5039                 1.4310                 4.9039
 Frc consts  --      0.6744                 0.6509                 2.2738
 IR Inten    --      2.4131                 0.1350                 0.4754

                     46                     47                     48
                      A                      A                      A
 Frequencies --    897.7602               905.0501               916.7577
 Red. masses --      2.3328                 1.3171                 3.9785
 Frc consts  --      1.1078                 0.6356                 1.9701
 IR Inten    --      0.2711                 0.9000                 5.5878

                     49                     50                     51
                      A                      A                      A
 Frequencies --    942.7413               953.7120               953.9874
 Red. masses --      1.8479                 1.4650                 1.6024
 Frc consts  --      0.9677                 0.7851                 0.8592
 IR Inten    --      0.4506                 0.3344                 1.7234

                     52                     53                     54
                      A                      A                      A
 Frequencies --    967.5088               977.5091               997.4824
 Red. masses --      1.3538                 1.5623                 1.2501
 Frc consts  --      0.7466                 0.8795                 0.7328
 IR Inten    --      4.7273                 5.4735                 0.3861

                     55                     56                     57
                      A                      A                      A
 Frequencies --    997.7991              1016.1790              1016.5579
 Red. masses --      1.6450                 1.4406                 1.2958
 Frc consts  --      0.9650                 0.8765                 0.7890
 IR Inten    --      9.2720                 0.9205                 0.5335

                     58                     59                     60
                      A                      A                      A
 Frequencies --   1041.9343              1068.1989              1076.0085
 Red. masses --      2.0595                 1.5839                 2.4016
 Frc consts  --      1.3173                 1.0649                 1.6383
 IR Inten    --      8.9702                 1.1503                 0.6966

                     61                     62                     63
                      A                      A                      A
 Frequencies --   1084.7413              1089.6537              1114.9264
 Red. masses --      1.5353                 1.3111                 1.4060
 Frc consts  --      1.0644                 0.9172                 1.0297
 IR Inten    --      3.5623                 7.5640                 3.9479

                     64                     65                     66
                      A                      A                      A
 Frequencies --   1132.0669              1150.3824              1166.0111
 Red. masses --      1.6639                 1.4137                 1.1213
 Frc consts  --      1.2563                 1.1023                 0.8982
 IR Inten    --     13.0172                 7.5681                 0.6258

                     67                     68                     69
                      A                      A                      A
 Frequencies --   1172.2824              1209.3869              1235.9746
 Red. masses --      2.1965                 2.2587                 2.9263
 Frc consts  --      1.7785                 1.9464                 2.6339
 IR Inten    --     19.6322                14.7488                 1.0338

                     70                     71                     72
                      A                      A                      A
 Frequencies --   1237.1779              1251.6763              1269.9500
 Red. masses --      2.5687                 2.0005                 1.9144
 Frc consts  --      2.3164                 1.8466                 1.8191
 IR Inten    --     12.3171                 3.0842                 3.3189

                     73                     74                     75
                      A                      A                      A
 Frequencies --   1277.4472              1286.6004              1299.6912
 Red. masses --      1.4996                 2.5843                 2.0250
 Frc consts  --      1.4418                 2.5205                 2.0154
 IR Inten    --     16.7088                18.9069                16.9674

                     76                     77                     78
                      A                      A                      A
 Frequencies --   1323.6787              1330.2536              1371.2447
 Red. masses --      2.7275                 1.3105                 6.2929
 Frc consts  --      2.8157                 1.3663                 6.9715
 IR Inten    --     13.9297                 7.8316                53.8292

                     79                     80                     81
                      A                      A                      A
 Frequencies --   1375.6876              1387.6034              1389.1631
 Red. masses --      1.5071                 1.8022                 1.5046
 Frc consts  --      1.6805                 2.0444                 1.7107
 IR Inten    --      0.8957                13.9352                18.8617

                     82                     83                     84
                      A                      A                      A
 Frequencies --   1391.9921              1398.4245              1402.3687
 Red. masses --      1.2749                 1.5866                 1.4371
 Frc consts  --      1.4555                 1.8281                 1.6651
 IR Inten    --      0.1427                 1.4506                24.7557

                     85                     86                     87
                      A                      A                      A
 Frequencies --   1416.1084              1416.8277              1474.4102
 Red. masses --      1.2320                 1.3353                 1.0535
 Frc consts  --      1.4557                 1.5793                 1.3493
 IR Inten    --     18.3474                 9.0883                 1.2597

                     88                     89                     90
                      A                      A                      A
 Frequencies --   1475.3916              1482.4397              1483.2475
 Red. masses --      3.1196                 1.2857                 1.8078
 Frc consts  --      4.0009                 1.6647                 2.3433
 IR Inten    --     34.9530                 0.0224                19.6987

                     91                     92                     93
                      A                      A                      A
 Frequencies --   1483.3118              1491.5727              1492.1727
 Red. masses --      1.1591                 1.2093                 1.0737
 Frc consts  --      1.5026                 1.5852                 1.4086
 IR Inten    --      4.1865                 3.9172                 4.3046

                     94                     95                     96
                      A                      A                      A
 Frequencies --   1497.7402              1498.3639              1501.6514
 Red. masses --      1.4253                 1.0719                 1.4609
 Frc consts  --      1.8838                 1.4179                 1.9409
 IR Inten    --     44.3612                 2.4590                 3.0203

                     97                     98                     99
                      A                      A                      A
 Frequencies --   1506.7554              1510.0436              1514.0438
 Red. masses --      1.1486                 1.0567                 1.0900
 Frc consts  --      1.5364                 1.4197                 1.4721
 IR Inten    --      2.6810                15.8776                26.8854

                    100                    101                    102
                      A                      A                      A
 Frequencies --   1522.5415              1547.7034              1568.0038
 Red. masses --      1.1056                 2.9958                 4.1203
 Frc consts  --      1.5101                 4.2280                 5.9686
 IR Inten    --      6.0198                 7.7423                14.6443

                    103                    104                    105
                      A                      A                      A
 Frequencies --   1647.4598              1689.7601              3053.7226
 Red. masses --      5.4291                 6.3609                 1.0635
 Frc consts  --      8.6818                10.7009                 5.8431
 IR Inten    --      5.1290                 1.8166                 9.9536

                    106                    107                    108
                      A                      A                      A
 Frequencies --   3054.5030              3069.6836              3070.6596
 Red. masses --      1.0648                 1.0350                 1.0398
 Frc consts  --      5.8535                 5.7461                 5.7764
 IR Inten    --     30.0489                 0.1939                 7.9445

                    109                    110                    111
                      A                      A                      A
 Frequencies --   3073.0948              3073.7227              3076.9186
 Red. masses --      1.0364                 1.0480                 1.0480
 Frc consts  --      5.7665                 5.8338                 5.8460
 IR Inten    --     30.7402                 9.1528                28.3900

                    112                    113                    114
                      A                      A                      A
 Frequencies --   3104.3029              3106.1772              3118.2325
 Red. masses --      1.1005                 1.0966                 1.1040
 Frc consts  --      6.2485                 6.2336                 6.3247
 IR Inten    --     24.7364                35.7368                37.2816

                    115                    116                    117
                      A                      A                      A
 Frequencies --   3144.2258              3145.3502              3147.7287
 Red. masses --      1.1028                 1.1028                 1.1025
 Frc consts  --      6.4238                 6.4282                 6.4362
 IR Inten    --      1.4555                18.3850                48.9376

                    118                    119                    120
                      A                      A                      A
 Frequencies --   3149.6617              3156.9732              3168.2094
 Red. masses --      1.1021                 1.1035                 1.1022
 Frc consts  --      6.4414                 6.4799                 6.5185
 IR Inten    --      7.4376                 5.0378                 7.6090

                    121                    122                    123
                      A                      A                      A
 Frequencies --   3168.4713              3170.4493              3198.5569
 Red. masses --      1.1022                 1.1006                 1.0858
 Frc consts  --      6.5197                 6.5181                 6.5453
 IR Inten    --      4.3570                30.3245                 0.3646

                    124                    125                    126
                      A                      A                      A
 Frequencies --   3206.1862              3219.7788              3227.0799
 Red. masses --      1.0899                 1.0936                 1.0964
 Frc consts  --      6.6012                 6.6798                 6.7274
 IR Inten    --     11.1527                23.6629                10.3222

                    127                    128                    129
                      A                      A                      A
 Frequencies --   3270.3182              3289.0386              3525.7707
 Red. masses --      1.0905                 1.1054                 1.0850
 Frc consts  --      6.8715                 7.0456                 7.9465
 IR Inten    --      0.6527                 2.3051               770.0448

 - Thermochemistry -
 -------------------
 Temperature   298.150 Kelvin.  Pressure   1.00000 Atm.
 Atom     1 has atomic number  7 and mass  14.00307

 Molecular mass:   273.19669 amu.
 Principal axes and moments of inertia in atomic units:
                           1         2         3
     Eigenvalues --  3115.691108246.240188791.94584
           X            1.00000   0.00167  -0.00004
           Y           -0.00167   1.00000  -0.00013
           Z            0.00004   0.00013   1.00000
 This molecule is an asymmetric top.
 Rotational symmetry number  1.
 Warning -- assumption of classical behavior for rotation
           may cause significant error
 Rotational temperatures (Kelvin)      0.02780     0.01050     0.00985
 Rotational constants (GHZ):           0.57924     0.21886     0.20527
 Zero-point vibrational energy    1040386.7 (Joules/Mol)
                                  248.65838 (Kcal/Mol)
 Warning -- explicit consideration of  34 degrees of freedom as
           vibrations may cause significant error
 Vibrational temperatures:     13.50    37.28    56.54    92.00   107.26
          (Kelvin)            137.04   209.22   210.45   276.18   311.38
                              330.05   363.56   370.91   381.05   410.73
                              432.07   438.43   460.43   481.94   495.53
                              562.35   579.50   589.56   603.57   636.63
                              661.73   682.58   788.32   793.56   830.42
                              837.32   843.67   860.87   890.34   944.27
                              977.38  1076.20  1101.86  1124.08  1141.65
                             1162.51  1176.83  1255.18  1264.17  1276.34
                             1291.68  1302.17  1319.01  1356.39  1372.18
                             1372.58  1392.03  1406.42  1435.15  1435.61
                             1462.05  1462.60  1499.11  1536.90  1548.14
                             1560.70  1567.77  1604.13  1628.79  1655.14
                             1677.63  1686.65  1740.04  1778.29  1780.02
                             1800.88  1827.17  1837.96  1851.13  1869.97
                             1904.48  1913.94  1972.92  1979.31  1996.45
                             1998.70  2002.77  2012.02  2017.70  2037.46
                             2038.50  2121.35  2122.76  2132.90  2134.06
                             2134.15  2146.04  2146.90  2154.91  2155.81
                             2160.54  2167.88  2172.62  2178.37  2190.60
                             2226.80  2256.01  2370.33  2431.19  4393.63
                             4394.75  4416.59  4417.99  4421.50  4422.40
                             4427.00  4466.40  4469.10  4486.44  4523.84
                             4525.46  4528.88  4531.66  4542.18  4558.35
                             4558.72  4561.57  4602.01  4612.99  4632.54
                             4643.05  4705.26  4732.19  5072.80

 Zero-point correction=                           0.396262 (Hartree/Particle)
 Thermal correction to Energy=                    0.416011
 Thermal correction to Enthalpy=                  0.416956
 Thermal correction to Gibbs Free Energy=         0.346403
 Sum of electronic and zero-point Energies=           -847.004119
 Sum of electronic and thermal Energies=              -846.984370
 Sum of electronic and thermal Enthalpies=            -846.983426
 Sum of electronic and thermal Free Energies=         -847.053979

                     E (Thermal)             CV                S
                      KCal/Mol        Cal/Mol-Kelvin    Cal/Mol-Kelvin
 Total                  261.051             78.682            148.491
 Electronic               0.000              0.000              1.377
 Translational            0.889              2.981             42.714
 Rotational               0.889              2.981             33.779
 Vibrational            259.274             72.721             70.621
 Vibration     1          0.593              1.987              8.137
 Vibration     2          0.593              1.985              6.120
 Vibration     3          0.594              1.981              5.294
 Vibration     4          0.597              1.972              4.332
 Vibration     5          0.599              1.966              4.029
 Vibration     6          0.603              1.953              3.549
 Vibration     7          0.617              1.908              2.731
 Vibration     8          0.617              1.907              2.720
 Vibration     9          0.634              1.851              2.209
 Vibration    10          0.645              1.816              1.989
 Vibration    11          0.652              1.796              1.884
 Vibration    12          0.664              1.758              1.712
 Vibration    13          0.667              1.750              1.677
 Vibration    14          0.671              1.737              1.630
 Vibration    15          0.683              1.701              1.501
 Vibration    16          0.693              1.673              1.415
 Vibration    17          0.696              1.665              1.391
 Vibration    18          0.706              1.635              1.310
 Vibration    19          0.716              1.606              1.236
 Vibration    20          0.723              1.587              1.192
 Vibration    21          0.759              1.490              0.997
 Vibration    22          0.768              1.464              0.953
 Vibration    23          0.774              1.449              0.927
 Vibration    24          0.782              1.428              0.894
 Vibration    25          0.802              1.377              0.819
 Vibration    26          0.818              1.339              0.766
 Vibration    27          0.831              1.307              0.725
 Vibration    28          0.903              1.144              0.549
 Vibration    29          0.907              1.136              0.541
 Vibration    30          0.934              1.081              0.491
 Vibration    31          0.939              1.070              0.482
 Vibration    32          0.943              1.061              0.474
 Vibration    33          0.956              1.035              0.453
 Vibration    34          0.979              0.992              0.418

                           ! Non-Optimized Parameters !
 Normal termination of Gaussian 16 at Sat May 16 18:32:27 2020.
